<?xml version="1.0" encoding="UTF-8"?>

<!-- generated on 2022-07-28 16:08:42 by Eclipse SUMO sumo Version 1.10.0
<configuration xmlns:xsi="http://www.w3.org/2001/XMLSchema-instance" xsi:noNamespaceSchemaLocation="http://sumo.dlr.de/xsd/sumoConfiguration.xsd">

    <input>
        <net-file value="/Users/wangzheng/Desktop/01/sumo/IEEE%20ISC2%202022/sumo_scenario/scenario.net.xml"/>
        <route-files value="/Users/wangzheng/Desktop/01/sumo/IEEE%20ISC2%202022/sumo_scenario/scenario.trips.xml"/>
        <additional-files value="/Users/wangzheng/Desktop/01/sumo/IEEE%20ISC2%202022/sumo_scenario/exercise.add.xml"/>
    </input>

    <output>
        <emission-output value="/Users/wangzheng/Desktop/01/sumo/IEEE%20ISC2%202022/sumo_scenario/emission.xml"/>
        <tripinfo-output value="/Users/wangzheng/Desktop/01/sumo/IEEE%20ISC2%202022/training_tripinfo/XRouting_training/tripinfo1.xml"/>
        <tripinfo-output.write-unfinished value="true"/>
    </output>

    <time>
        <begin value="0"/>
    </time>

    <processing>
        <ignore-route-errors value="true"/>
    </processing>

    <routing>
        <routing-algorithm value="dijkstra"/>
    </routing>

    <report>
        <verbose value="true"/>
        <no-step-log value="true"/>
    </report>

    <traci_server>
        <remote-port value="62312"/>
    </traci_server>

</configuration>
-->

<tripinfos xmlns:xsi="http://www.w3.org/2001/XMLSchema-instance" xsi:noNamespaceSchemaLocation="http://sumo.dlr.de/xsd/tripinfo_file.xsd">
    <tripinfo id="0" depart="0.00" departLane="B0B1_0" departPos="5.10" departSpeed="0.00" departDelay="0.00" arrival="39.00" arrivalLane="B1C1_0" arrivalPos="279.20" arrivalSpeed="14.37" duration="39.00" routeLength="462.33" waitingTime="0.00" waitingCount="0" stopTime="0.00" timeLoss="6.53" rerouteNo="0" devices="tripinfo_0 routing_0 emissions_0" vType="human_car" speedFactor="1.06" vaporized="">
        <emissions CO_abs="1815.323894" CO2_abs="122197.125362" HC_abs="11.152379" PMx_abs="2.194094" NOx_abs="49.928899" fuel_abs="52.527236" electricity_abs="0"/>
    </tripinfo>
    <tripinfo id="20" depart="20.00" departLane="A2B2_0" departPos="5.10" departSpeed="0.00" departDelay="0.00" arrival="61.00" arrivalLane="B2B1_0" arrivalPos="179.20" arrivalSpeed="13.80" duration="41.00" routeLength="462.33" waitingTime="0.00" waitingCount="0" stopTime="0.00" timeLoss="7.06" rerouteNo="0" devices="tripinfo_20 routing_20 emissions_20" vType="human_car" speedFactor="1.02" vaporized="">
        <emissions CO_abs="1984.172023" CO2_abs="131591.842604" HC_abs="12.134786" PMx_abs="2.358316" NOx_abs="53.850635" fuel_abs="56.565636" electricity_abs="0"/>
    </tripinfo>
    <tripinfo id="10" depart="10.00" departLane="B1A1_0" departPos="5.10" departSpeed="0.00" departDelay="0.00" arrival="63.00" arrivalLane="A1A0_0" arrivalPos="183.20" arrivalSpeed="8.91" duration="53.00" routeLength="476.65" waitingTime="9.00" waitingCount="1" stopTime="0.00" timeLoss="20.56" rerouteNo="0" devices="tripinfo_10 routing_10 emissions_10" vType="human_car" speedFactor="1.09" vaporized="">
        <emissions CO_abs="2757.214942" CO2_abs="156981.354157" HC_abs="16.239272" PMx_abs="2.958395" NOx_abs="65.175334" fuel_abs="67.479595" electricity_abs="0"/>
    </tripinfo>
    <tripinfo id="12" depart="12.00" departLane="D1C1_0" departPos="5.10" departSpeed="0.00" departDelay="0.00" arrival="70.00" arrivalLane="C1B1_1" arrivalPos="279.20" arrivalSpeed="13.39" duration="58.00" routeLength="581.44" waitingTime="6.00" waitingCount="1" stopTime="0.00" timeLoss="17.35" rerouteNo="0" devices="tripinfo_12 routing_12 emissions_12" vType="human_car" speedFactor="1.05" vaporized="">
        <emissions CO_abs="2321.679437" CO2_abs="158496.230601" HC_abs="14.245237" PMx_abs="2.724148" NOx_abs="63.801032" fuel_abs="68.130811" electricity_abs="0"/>
    </tripinfo>
    <tripinfo id="1" depart="1.00" departLane="D1C1_0" departPos="5.10" departSpeed="0.00" departDelay="0.00" arrival="72.00" arrivalLane="C1B1_0" arrivalPos="279.20" arrivalSpeed="11.98" duration="71.00" routeLength="581.44" waitingTime="16.00" waitingCount="1" stopTime="0.00" timeLoss="25.62" rerouteNo="0" devices="tripinfo_1 routing_1 emissions_1" vType="human_car" speedFactor="0.94" vaporized="">
        <emissions CO_abs="3925.768936" CO2_abs="164121.683426" HC_abs="21.714744" PMx_abs="3.011616" NOx_abs="67.794204" fuel_abs="70.549923" electricity_abs="0"/>
    </tripinfo>
    <tripinfo id="11" depart="11.00" departLane="B1B2_0" departPos="5.10" departSpeed="0.00" departDelay="0.00" arrival="72.00" arrivalLane="B2A2_0" arrivalPos="279.20" arrivalSpeed="6.47" duration="61.00" routeLength="472.65" waitingTime="15.00" waitingCount="1" stopTime="0.00" timeLoss="27.01" rerouteNo="0" devices="tripinfo_11 routing_11 emissions_11" vType="human_car" speedFactor="1.03" vaporized="">
        <emissions CO_abs="4184.265273" CO2_abs="165911.662805" HC_abs="22.944803" PMx_abs="3.228691" NOx_abs="69.847816" fuel_abs="71.319257" electricity_abs="0"/>
    </tripinfo>
    <tripinfo id="21" depart="21.00" departLane="D1C1_0" departPos="5.10" departSpeed="0.00" departDelay="0.00" arrival="72.00" arrivalLane="C1B1_1" arrivalPos="279.20" arrivalSpeed="13.04" duration="51.00" routeLength="581.44" waitingTime="0.00" waitingCount="0" stopTime="0.00" timeLoss="8.92" rerouteNo="0" devices="tripinfo_21 routing_21 emissions_21" vType="human_car" speedFactor="1.01" vaporized="">
        <emissions CO_abs="2072.072517" CO2_abs="134427.335877" HC_abs="12.562418" PMx_abs="2.333434" NOx_abs="54.470254" fuel_abs="57.784647" electricity_abs="0"/>
    </tripinfo>
    <tripinfo id="31" depart="31.00" departLane="A1B1_0" departPos="5.10" departSpeed="0.00" departDelay="0.00" arrival="72.00" arrivalLane="B1B2_1" arrivalPos="179.20" arrivalSpeed="11.88" duration="41.00" routeLength="474.11" waitingTime="0.00" waitingCount="0" stopTime="0.00" timeLoss="10.71" rerouteNo="0" devices="tripinfo_31 routing_31 emissions_31" vType="human_car" speedFactor="1.18" vaporized="">
        <emissions CO_abs="1999.820158" CO2_abs="131439.203114" HC_abs="12.159966" PMx_abs="2.394105" NOx_abs="54.010489" fuel_abs="56.499973" electricity_abs="0"/>
    </tripinfo>
    <tripinfo id="35" depart="38.00" departLane="B1C1_0" departPos="5.10" departSpeed="0.00" departDelay="3.00" arrival="75.00" arrivalLane="C1C0_0" arrivalPos="179.19" arrivalSpeed="15.08" duration="37.00" routeLength="462.33" waitingTime="0.00" waitingCount="0" stopTime="0.00" timeLoss="7.46" rerouteNo="0" devices="tripinfo_35 routing_35 emissions_35" vType="human_car" speedFactor="1.17" vaporized="">
        <emissions CO_abs="1986.132313" CO2_abs="136425.650767" HC_abs="12.230573" PMx_abs="2.505569" NOx_abs="55.843144" fuel_abs="58.643358" electricity_abs="0"/>
    </tripinfo>
    <tripinfo id="30" depart="32.00" departLane="D1C1_0" departPos="5.10" departSpeed="0.00" departDelay="2.00" arrival="83.00" arrivalLane="C1B1_0" arrivalPos="279.20" arrivalSpeed="11.96" duration="51.00" routeLength="581.44" waitingTime="0.00" waitingCount="0" stopTime="0.00" timeLoss="5.53" rerouteNo="0" devices="tripinfo_30 routing_30 emissions_30" vType="human_car" speedFactor="0.93" vaporized="">
        <emissions CO_abs="1570.488502" CO2_abs="119790.419182" HC_abs="9.932252" PMx_abs="1.857714" NOx_abs="46.935813" fuel_abs="51.492978" electricity_abs="0"/>
    </tripinfo>
    <tripinfo id="37" depart="37.00" departLane="D1C1_0" departPos="5.10" departSpeed="0.00" departDelay="0.00" arrival="83.00" arrivalLane="C1B1_1" arrivalPos="279.20" arrivalSpeed="13.94" duration="46.00" routeLength="581.44" waitingTime="0.00" waitingCount="0" stopTime="0.00" timeLoss="4.80" rerouteNo="0" devices="tripinfo_37 routing_37 emissions_37" vType="human_car" speedFactor="1.02" vaporized="">
        <emissions CO_abs="1487.384303" CO2_abs="125284.632030" HC_abs="9.676721" PMx_abs="1.993252" NOx_abs="49.075044" fuel_abs="53.854536" electricity_abs="0"/>
    </tripinfo>
    <tripinfo id="27" depart="28.00" departLane="B1C1_0" departPos="5.10" departSpeed="0.00" departDelay="1.00" arrival="87.00" arrivalLane="C1B1_0" arrivalPos="279.20" arrivalSpeed="12.09" duration="59.00" routeLength="557.98" waitingTime="4.00" waitingCount="1" stopTime="0.00" timeLoss="14.49" rerouteNo="0" devices="tripinfo_27 routing_27 emissions_27" vType="human_car" speedFactor="0.95" vaporized="">
        <emissions CO_abs="2331.575860" CO2_abs="137195.198708" HC_abs="13.823412" PMx_abs="2.352938" NOx_abs="55.587346" fuel_abs="58.974650" electricity_abs="0"/>
    </tripinfo>
    <tripinfo id="8" depart="10.00" departLane="right0D0_0" departPos="5.10" departSpeed="0.00" departDelay="2.00" arrival="89.00" arrivalLane="C1B1_0" arrivalPos="279.20" arrivalSpeed="12.54" duration="79.00" routeLength="881.22" waitingTime="0.00" waitingCount="0" stopTime="0.00" timeLoss="9.61" rerouteNo="1" devices="tripinfo_8 routing_8 emissions_8" vType="human_car" speedFactor="0.94" vaporized="">
        <emissions CO_abs="2798.783404" CO2_abs="205366.996583" HC_abs="17.535545" PMx_abs="3.342516" NOx_abs="81.726261" fuel_abs="88.278657" electricity_abs="0"/>
    </tripinfo>
    <tripinfo id="26" depart="26.00" departLane="C1B1_0" departPos="5.10" departSpeed="0.00" departDelay="0.00" arrival="95.00" arrivalLane="B2C2_0" arrivalPos="279.20" arrivalSpeed="11.58" duration="69.00" routeLength="750.56" waitingTime="0.00" waitingCount="0" stopTime="0.00" timeLoss="8.83" rerouteNo="1" devices="tripinfo_26 routing_26 emissions_26" vType="human_car" speedFactor="0.92" vaporized="">
        <emissions CO_abs="2314.806612" CO2_abs="171565.026414" HC_abs="14.536303" PMx_abs="2.760726" NOx_abs="68.166318" fuel_abs="73.748627" electricity_abs="0"/>
    </tripinfo>
    <tripinfo id="50" depart="50.00" departLane="D1C1_0" departPos="5.10" departSpeed="0.00" departDelay="0.00" arrival="101.00" arrivalLane="C1B1_1" arrivalPos="279.20" arrivalSpeed="11.80" duration="51.00" routeLength="581.44" waitingTime="0.00" waitingCount="0" stopTime="0.00" timeLoss="4.40" rerouteNo="0" devices="tripinfo_50 routing_50 emissions_50" vType="human_car" speedFactor="0.90" vaporized="">
        <emissions CO_abs="1477.362988" CO2_abs="115104.280788" HC_abs="9.395602" PMx_abs="1.767143" NOx_abs="45.071841" fuel_abs="49.478591" electricity_abs="0"/>
    </tripinfo>
    <tripinfo id="64" depart="64.00" departLane=":B1_16_0" departPos="5.10" departSpeed="0.00" departDelay="0.00" arrival="103.00" arrivalLane="B2C2_0" arrivalPos="279.20" arrivalSpeed="10.25" duration="39.00" routeLength="483.13" waitingTime="0.00" waitingCount="0" stopTime="0.00" timeLoss="6.95" rerouteNo="1" devices="tripinfo_64 routing_64 emissions_64" vType="human_car" speedFactor="1.12" vaporized="">
        <emissions CO_abs="1851.249224" CO2_abs="121484.038319" HC_abs="11.268756" PMx_abs="2.261050" NOx_abs="50.132986" fuel_abs="52.220622" electricity_abs="0"/>
    </tripinfo>
    <tripinfo id="88" depart="88.00" departLane="C1C2_0" departPos="5.10" departSpeed="0.00" departDelay="0.00" arrival="105.00" arrivalLane="C1C2_1" arrivalPos="179.20" arrivalSpeed="10.72" duration="17.00" routeLength="174.10" waitingTime="0.00" waitingCount="0" stopTime="0.00" timeLoss="5.75" rerouteNo="1" devices="tripinfo_88 routing_88 emissions_88" vType="human_car" speedFactor="1.15" vaporized="">
        <emissions CO_abs="1407.335072" CO2_abs="78470.747309" HC_abs="8.275554" PMx_abs="1.536665" NOx_abs="33.117695" fuel_abs="33.731153" electricity_abs="0"/>
    </tripinfo>
    <tripinfo id="58" depart="59.00" departLane="D1C1_0" departPos="5.10" departSpeed="0.00" departDelay="1.00" arrival="107.00" arrivalLane="C1B1_1" arrivalPos="279.20" arrivalSpeed="12.86" duration="48.00" routeLength="581.44" waitingTime="0.00" waitingCount="0" stopTime="0.00" timeLoss="5.67" rerouteNo="0" devices="tripinfo_58 routing_58 emissions_58" vType="human_car" speedFactor="1.00" vaporized="">
        <emissions CO_abs="1574.373247" CO2_abs="122493.081666" HC_abs="9.997233" PMx_abs="1.955318" NOx_abs="48.183319" fuel_abs="52.654642" electricity_abs="0"/>
    </tripinfo>
    <tripinfo id="9" depart="9.00" departLane="B1B0_0" departPos="5.10" departSpeed="0.00" departDelay="0.00" arrival="111.00" arrivalLane="A1A2_0" arrivalPos="179.20" arrivalSpeed="11.48" duration="102.00" routeLength="852.11" waitingTime="14.00" waitingCount="1" stopTime="0.00" timeLoss="28.70" rerouteNo="1" devices="tripinfo_9 routing_9 emissions_9" vType="human_car" speedFactor="0.86" vaporized="">
        <emissions CO_abs="4859.890186" CO2_abs="242098.324635" HC_abs="27.751970" PMx_abs="4.100903" NOx_abs="97.977637" fuel_abs="104.068942" electricity_abs="0"/>
    </tripinfo>
    <tripinfo id="53" depart="56.00" departLane="D1C1_0" departPos="5.10" departSpeed="0.00" departDelay="3.00" arrival="111.00" arrivalLane="C1B1_1" arrivalPos="279.20" arrivalSpeed="10.92" duration="55.00" routeLength="581.44" waitingTime="0.00" waitingCount="0" stopTime="0.00" timeLoss="5.90" rerouteNo="0" devices="tripinfo_53 routing_53 emissions_53" vType="human_car" speedFactor="0.85" vaporized="">
        <emissions CO_abs="1605.269080" CO2_abs="117394.515837" HC_abs="10.000322" PMx_abs="1.666012" NOx_abs="45.186280" fuel_abs="50.463351" electricity_abs="0"/>
    </tripinfo>
    <tripinfo id="44" depart="44.00" departLane="C1C2_0" departPos="5.10" departSpeed="0.00" departDelay="0.00" arrival="115.00" arrivalLane="D1D0_1" arrivalPos="178.54" arrivalSpeed="14.62" duration="71.00" routeLength="858.33" waitingTime="0.00" waitingCount="0" stopTime="0.00" timeLoss="13.52" rerouteNo="1" devices="tripinfo_44 routing_44 emissions_44" vType="human_car" speedFactor="1.09" vaporized="">
        <emissions CO_abs="3134.593273" CO2_abs="230205.209534" HC_abs="19.656303" PMx_abs="4.141131" NOx_abs="93.786270" fuel_abs="98.954984" electricity_abs="0"/>
    </tripinfo>
     <tripinfo id="57" depart="57.00" departLane="C2C1_0" departPos="5.10" departSpeed="0.00" departDelay="0.00" arrival="118.00" arrivalLane="C1D1_1" arrivalPos="286.53" arrivalSpeed="13.72" duration="61.00" routeLength="479.99" waitingTime="14.00" waitingCount="1" stopTime="0.00" timeLoss="25.17" rerouteNo="0" devices="tripinfo_57 routing_57 emissions_57" vType="human_car" speedFactor="1.00" vaporized="">
        <emissions CO_abs="3373.331923" CO2_abs="153947.693299" HC_abs="18.970572" PMx_abs="2.822672" NOx_abs="63.557518" fuel_abs="66.176237" electricity_abs="0"/>
    </tripinfo>     <tripinfo id="104" depart="104.00" departLane="C1C2_0" departPos="5.10" departSpeed="0.00" departDelay="0.00" arrival="122.00" arrivalLane="C1C2_1" arrivalPos="179.20" arrivalSpeed="8.94" duration="18.00" routeLength="174.10" waitingTime="0.00" waitingCount="0" stopTime="0.00" timeLoss="6.15" rerouteNo="1" devices="tripinfo_104 routing_104 emissions_104" vType="human_car" speedFactor="1.10" vaporized="">
        <emissions CO_abs="1392.456051" CO2_abs="75400.923084" HC_abs="8.130822" PMx_abs="1.467520" NOx_abs="31.827334" fuel_abs="32.411611" electricity_abs="0"/>
    </tripinfo>     <tripinfo id="2" depart="2.00" departLane="A0A1_0" departPos="5.10" departSpeed="0.00" departDelay="0.00" arrival="132.00" arrivalLane="C2C1_0" arrivalPos="179.20" arrivalSpeed="13.02" duration="130.00" routeLength="1154.56" waitingTime="27.00" waitingCount="2" stopTime="0.00" timeLoss="45.89" rerouteNo="1" devices="tripinfo_2 routing_2 emissions_2" vType="human_car" speedFactor="1.01" vaporized="">
        <emissions CO_abs="6156.627571" CO2_abs="301306.187284" HC_abs="35.065377" PMx_abs="5.460633" NOx_abs="123.497664" fuel_abs="129.519787" electricity_abs="0"/>
    </tripinfo>     <tripinfo id="28" depart="28.00" departLane="D1D2_0" departPos="5.10" departSpeed="0.00" departDelay="0.00" arrival="138.00" arrivalLane="C1D1_1" arrivalPos="286.53" arrivalSpeed="14.59" duration="110.00" routeLength="985.46" waitingTime="27.00" waitingCount="2" stopTime="0.00" timeLoss="44.66" rerouteNo="1" devices="tripinfo_28 routing_28 emissions_28" vType="human_car" speedFactor="1.13" vaporized="">
        <emissions CO_abs="7220.963983" CO2_abs="314202.126991" HC_abs="40.302159" PMx_abs="6.217112" NOx_abs="132.362750" fuel_abs="135.063118" electricity_abs="0"/>
    </tripinfo>    <tripinfo id="78" depart="79.00" departLane="B1C1_0" departPos="5.10" departSpeed="0.00" departDelay="1.00" arrival="141.00" arrivalLane="B1C1_0" arrivalPos="279.20" arrivalSpeed="8.98" duration="62.00" routeLength="274.10" waitingTime="31.00" waitingCount="1" stopTime="0.00" timeLoss="41.38" rerouteNo="1" devices="tripinfo_78 routing_78 emissions_78" vType="human_car" speedFactor="0.98" vaporized="">
        <emissions CO_abs="5921.624230" CO2_abs="160779.755408" HC_abs="30.739328" PMx_abs="3.387158" NOx_abs="69.455721" fuel_abs="69.114435" electricity_abs="0"/>
    </tripinfo>
     <tripinfo id="43" depart="43.00" departLane="C1D1_0" departPos="5.10" departSpeed="0.00" departDelay="0.00" arrival="144.00" arrivalLane="C1C2_0" arrivalPos="179.20" arrivalSpeed="12.72" duration="101.00" routeLength="1152.60" waitingTime="0.00" waitingCount="0" stopTime="0.00" timeLoss="12.32" rerouteNo="1" devices="tripinfo_43 routing_43 emissions_43" vType="human_car" speedFactor="0.96" vaporized="">
        <emissions CO_abs="3118.957040" CO2_abs="252243.380851" HC_abs="20.074102" PMx_abs="4.002447" NOx_abs="99.435668" fuel_abs="108.428761" electricity_abs="0"/>
    </tripinfo>
    <tripinfo id="17" depart="17.00" departLane="C2B2_0" departPos="5.10" departSpeed="0.00" departDelay="0.00" arrival="145.00" arrivalLane="B1C1_0" arrivalPos="279.20" arrivalSpeed="12.58" duration="128.00" routeLength="775.07" waitingTime="49.00" waitingCount="2" stopTime="0.00" timeLoss="66.34" rerouteNo="1" devices="tripinfo_17 routing_17 emissions_17" vType="human_car" speedFactor="0.94" vaporized="">
        <emissions CO_abs="10008.243763" CO2_abs="322217.747441" HC_abs="53.127801" PMx_abs="6.392323" NOx_abs="136.427801" fuel_abs="138.510864" electricity_abs="0"/>
    </tripinfo>
    <tripinfo id="22" depart="22.00" departLane="C1C0_0" departPos="5.10" departSpeed="0.00" departDelay="0.00" arrival="147.00" arrivalLane="D1C1_1" arrivalPos="286.53" arrivalSpeed="11.83" duration="125.00" routeLength="983.55" waitingTime="20.00" waitingCount="3" stopTime="0.00" timeLoss="50.11" rerouteNo="1" devices="tripinfo_22 routing_22 emissions_22" vType="human_car" speedFactor="0.98" vaporized="">
        <emissions CO_abs="5960.280386" CO2_abs="301144.703378" HC_abs="34.208430" PMx_abs="5.478561" NOx_abs="124.370917" fuel_abs="129.450099" electricity_abs="0"/>
    </tripinfo>
    <tripinfo id="46" depart="46.00" departLane="right0D0_0" departPos="5.10" departSpeed="0.00" departDelay="0.00" arrival="148.00" arrivalLane="D2C2_0" arrivalPos="289.57" arrivalSpeed="14.21" duration="102.00" routeLength="787.43" waitingTime="30.00" waitingCount="2" stopTime="0.00" timeLoss="45.41" rerouteNo="1" devices="tripinfo_46 routing_46 emissions_46" vType="human_car" speedFactor="1.04" vaporized="">
        <emissions CO_abs="6425.710398" CO2_abs="251962.363732" HC_abs="35.181504" PMx_abs="4.856650" NOx_abs="105.413862" fuel_abs="108.309428" electricity_abs="0"/>
    </tripinfo>
    <tripinfo id="32" depart="34.00" departLane="A1B1_0" departPos="5.10" departSpeed="0.00" departDelay="2.00" arrival="153.00" arrivalLane="A2A1_0" arrivalPos="179.20" arrivalSpeed="7.26" duration="119.00" routeLength="930.09" waitingTime="39.00" waitingCount="1" stopTime="0.00" timeLoss="59.29" rerouteNo="1" devices="tripinfo_32 routing_32 emissions_32" vType="human_car" speedFactor="1.15" vaporized="">
        <emissions CO_abs="9774.459903" CO2_abs="374355.390811" HC_abs="53.195371" PMx_abs="7.444709" NOx_abs="157.596279" fuel_abs="160.921593" electricity_abs="0"/>
    </tripinfo>
     <tripinfo id="82" depart="82.00" departLane="B0B1_0" departPos="5.10" departSpeed="0.00" departDelay="0.00" arrival="153.00" arrivalLane="A1A0_1" arrivalPos="183.20" arrivalSpeed="13.23" duration="71.00" routeLength="674.18" waitingTime="8.00" waitingCount="1" stopTime="0.00" timeLoss="20.91" rerouteNo="1" devices="tripinfo_82 routing_82 emissions_82" vType="human_car" speedFactor="1.01" vaporized="">
        <emissions CO_abs="2939.153115" CO2_abs="187936.276283" HC_abs="17.793095" PMx_abs="3.284075" NOx_abs="76.253423" fuel_abs="80.785899" electricity_abs="0"/>
    </tripinfo>     <tripinfo id="77" depart="77.00" departLane="B0B1_0" departPos="5.10" departSpeed="0.00" departDelay="0.00" arrival="156.00" arrivalLane="B2B1_1" arrivalPos="179.20" arrivalSpeed="12.92" duration="79.00" routeLength="557.98" waitingTime="24.00" waitingCount="1" stopTime="0.00" timeLoss="35.95" rerouteNo="1" devices="tripinfo_77 routing_77 emissions_77" vType="human_car" speedFactor="0.96" vaporized="">
        <emissions CO_abs="5510.073400" CO2_abs="201443.507642" HC_abs="29.803385" PMx_abs="3.809625" NOx_abs="83.854536" fuel_abs="86.593641" electricity_abs="0"/>
    </tripinfo>     <tripinfo id="13" depart="13.00" departLane="D2D1_0" departPos="5.10" departSpeed="0.00" departDelay="0.00" arrival="157.00" arrivalLane="B2C2_1" arrivalPos="279.20" arrivalSpeed="15.52" duration="144.00" routeLength="1250.62" waitingTime="42.00" waitingCount="1" stopTime="0.00" timeLoss="61.95" rerouteNo="1" devices="tripinfo_13 routing_13 emissions_13" vType="human_car" speedFactor="1.12" vaporized="">
        <emissions CO_abs="9800.999241" CO2_abs="378125.074402" HC_abs="53.421291" PMx_abs="7.391945" NOx_abs="158.211008" fuel_abs="162.542197" electricity_abs="0"/>
    </tripinfo>
    <tripinfo id="63" depart="63.00" departLane="A1A0_0" departPos="5.10" departSpeed="0.00" departDelay="0.00" arrival="157.00" arrivalLane="A2A1_0" arrivalPos="179.20" arrivalSpeed="7.45" duration="94.00" routeLength="749.85" waitingTime="19.00" waitingCount="2" stopTime="0.00" timeLoss="42.60" rerouteNo="1" devices="tripinfo_63 routing_63 emissions_63" vType="human_car" speedFactor="1.08" vaporized="">
        <emissions CO_abs="5380.363358" CO2_abs="241441.433388" HC_abs="30.135868" PMx_abs="4.680750" NOx_abs="101.414763" fuel_abs="103.786122" electricity_abs="0"/>
    </tripinfo>
    <tripinfo id="49" depart="49.00" departLane="D2C2_0" departPos="5.10" departSpeed="0.00" departDelay="0.00" arrival="158.00" arrivalLane="D1D2_1" arrivalPos="183.69" arrivalSpeed="12.65" duration="109.00" routeLength="992.00" waitingTime="14.00" waitingCount="2" stopTime="0.00" timeLoss="34.84" rerouteNo="1" devices="tripinfo_49 routing_49 emissions_49" vType="human_car" speedFactor="1.00" vaporized="">
        <emissions CO_abs="5816.506999" CO2_abs="275593.811273" HC_abs="32.940396" PMx_abs="5.044931" NOx_abs="113.556217" fuel_abs="118.467097" electricity_abs="0"/>
    </tripinfo>
    <tripinfo id="4" depart="4.00" departLane="B0A0_0" departPos="5.10" departSpeed="0.00" departDelay="0.00" arrival="159.00" arrivalLane="C1C0_0" arrivalPos="179.19" arrivalSpeed="9.68" duration="155.00" routeLength="1240.34" waitingTime="43.00" waitingCount="2" stopTime="0.00" timeLoss="66.43" rerouteNo="1" devices="tripinfo_4 routing_4 emissions_4" vType="human_car" speedFactor="1.03" vaporized="">
        <emissions CO_abs="10095.372697" CO2_abs="392835.064662" HC_abs="55.174641" PMx_abs="7.576202" NOx_abs="164.394058" fuel_abs="168.865516" electricity_abs="0"/>
    </tripinfo>
    <tripinfo id="71" depart="73.00" departLane="D1C1_0" departPos="5.10" departSpeed="0.00" departDelay="2.00" arrival="160.00" arrivalLane="C1B1_0" arrivalPos="279.20" arrivalSpeed="14.43" duration="87.00" routeLength="581.44" waitingTime="36.00" waitingCount="1" stopTime="0.00" timeLoss="46.16" rerouteNo="0" devices="tripinfo_71 routing_71 emissions_71" vType="human_car" speedFactor="1.04" vaporized="">
        <emissions CO_abs="7622.227240" CO2_abs="239154.695944" HC_abs="40.327403" PMx_abs="4.810203" NOx_abs="101.337984" fuel_abs="102.804878" electricity_abs="0"/>
    </tripinfo>
    <tripinfo id="18" depart="18.00" departLane="C1C0_0" departPos="5.10" departSpeed="0.00" departDelay="0.00" arrival="162.00" arrivalLane="D2C2_0" arrivalPos="289.57" arrivalSpeed="12.42" duration="144.00" routeLength="1189.77" waitingTime="24.00" waitingCount="3" stopTime="0.00" timeLoss="49.52" rerouteNo="1" devices="tripinfo_18 routing_18 emissions_18" vType="human_car" speedFactor="0.94" vaporized="">
        <emissions CO_abs="5938.686405" CO2_abs="308096.510609" HC_abs="34.224923" PMx_abs="5.299869" NOx_abs="124.895612" fuel_abs="132.438773" electricity_abs="0"/>
    </tripinfo>
    <tripinfo id="59" depart="59.00" departLane="left2A2_0" departPos="5.10" departSpeed="0.00" departDelay="0.00" arrival="162.00" arrivalLane="B1C1_0" arrivalPos="279.20" arrivalSpeed="12.44" duration="103.00" routeLength="881.69" waitingTime="12.00" waitingCount="2" stopTime="0.00" timeLoss="31.17" rerouteNo="1" devices="tripinfo_59 routing_59 emissions_59" vType="human_car" speedFactor="0.90" vaporized="">
        <emissions CO_abs="4716.822712" CO2_abs="257709.220256" HC_abs="27.516596" PMx_abs="4.585295" NOx_abs="105.906254" fuel_abs="110.778731" electricity_abs="0"/>
    </tripinfo>
    <tripinfo id="70" depart="70.00" departLane="D1C1_0" departPos="5.10" departSpeed="0.00" departDelay="0.00" arrival="162.00" arrivalLane="C1B1_0" arrivalPos="279.20" arrivalSpeed="11.87" duration="92.00" routeLength="581.44" waitingTime="37.00" waitingCount="1" stopTime="0.00" timeLoss="45.61" rerouteNo="0" devices="tripinfo_70 routing_70 emissions_70" vType="human_car" speedFactor="0.91" vaporized="">
        <emissions CO_abs="7255.178244" CO2_abs="213927.085569" HC_abs="38.029127" PMx_abs="4.214392" NOx_abs="90.322040" fuel_abs="91.960827" electricity_abs="0"/>
    </tripinfo>
    <tripinfo id="110" depart="110.00" departLane="A1A2_0" departPos="5.10" departSpeed="0.00" departDelay="0.00" arrival="162.00" arrivalLane="A2B2_0" arrivalPos="279.20" arrivalSpeed="12.28" duration="52.00" routeLength="462.33" waitingTime="4.00" waitingCount="1" stopTime="0.00" timeLoss="13.79" rerouteNo="0" devices="tripinfo_110 routing_110 emissions_110" vType="human_car" speedFactor="0.89" vaporized="">
        <emissions CO_abs="2040.469693" CO2_abs="121960.155285" HC_abs="12.135110" PMx_abs="2.061187" NOx_abs="49.335402" fuel_abs="52.425730" electricity_abs="0"/>
    </tripinfo>
    <tripinfo id="54" depart="54.00" departLane="A1B1_0" departPos="5.10" departSpeed="0.00" departDelay="0.00" arrival="163.00" arrivalLane="B2A2_0" arrivalPos="279.20" arrivalSpeed="16.08" duration="109.00" routeLength="770.18" waitingTime="42.00" waitingCount="1" stopTime="0.00" timeLoss="59.94" rerouteNo="1" devices="tripinfo_54 routing_54 emissions_54" vType="human_car" speedFactor="1.17" vaporized="">
        <emissions CO_abs="10547.912368" CO2_abs="357292.629359" HC_abs="56.365423" PMx_abs="7.414811" NOx_abs="153.065086" fuel_abs="153.587448" electricity_abs="0"/>
    </tripinfo>
    <tripinfo id="100" depart="100.00" departLane="D1C1_0" departPos="5.10" departSpeed="0.00" departDelay="0.00" arrival="163.00" arrivalLane="C1B1_0" arrivalPos="279.20" arrivalSpeed="13.98" duration="63.00" routeLength="581.44" waitingTime="10.00" waitingCount="1" stopTime="0.00" timeLoss="23.39" rerouteNo="0" devices="tripinfo_100 routing_100 emissions_100" vType="human_car" speedFactor="1.06" vaporized="">
        <emissions CO_abs="3082.361459" CO2_abs="164838.529995" HC_abs="17.890004" PMx_abs="2.967784" NOx_abs="67.381963" fuel_abs="70.857451" electricity_abs="0"/>
    </tripinfo>
    <tripinfo id="99" depart="99.00" departLane="A0A1_0" departPos="5.10" departSpeed="0.00" departDelay="0.00" arrival="166.00" arrivalLane="B1B2_0" arrivalPos="179.20" arrivalSpeed="14.68" duration="67.00" routeLength="666.34" waitingTime="8.00" waitingCount="1" stopTime="0.00" timeLoss="21.88" rerouteNo="1" devices="tripinfo_99 routing_99 emissions_99" vType="human_car" speedFactor="1.09" vaporized="">
        <emissions CO_abs="3663.385749" CO2_abs="211991.292179" HC_abs="21.646673" PMx_abs="3.954470" NOx_abs="87.542391" fuel_abs="91.126054" electricity_abs="0"/>
    </tripinfo>
    <tripinfo id="101" depart="103.00" departLane="D1C1_0" departPos="5.10" departSpeed="0.00" departDelay="2.00" arrival="166.00" arrivalLane="C1B1_0" arrivalPos="279.20" arrivalSpeed="13.53" duration="63.00" routeLength="581.44" waitingTime="9.00" waitingCount="1" stopTime="0.00" timeLoss="20.95" rerouteNo="0" devices="tripinfo_101 routing_101 emissions_101" vType="human_car" speedFactor="1.01" vaporized="">
        <emissions CO_abs="2959.643079" CO2_abs="167377.977707" HC_abs="17.365699" PMx_abs="2.873978" NOx_abs="67.498309" fuel_abs="71.949127" electricity_abs="0"/>
    </tripinfo>
    <tripinfo id="103" depart="106.00" departLane="D1C1_0" departPos="5.10" departSpeed="0.00" departDelay="3.00" arrival="166.00" arrivalLane="C1B1_1" arrivalPos="279.20" arrivalSpeed="14.79" duration="60.00" routeLength="581.44" waitingTime="5.00" waitingCount="1" stopTime="0.00" timeLoss="22.49" rerouteNo="0" devices="tripinfo_103 routing_103 emissions_103" vType="human_car" speedFactor="1.12" vaporized="">
        <emissions CO_abs="2775.573729" CO2_abs="171348.793141" HC_abs="16.660300" PMx_abs="3.073675" NOx_abs="70.172353" fuel_abs="73.655582" electricity_abs="0"/>
    </tripinfo>
    <tripinfo id="36" depart="36.00" departLane="C0C1_0" departPos="5.10" departSpeed="0.00" departDelay="0.00" arrival="167.00" arrivalLane="D0right0_1" arrivalPos="92.83" arrivalSpeed="12.89" duration="131.00" routeLength="769.44" waitingTime="55.00" waitingCount="2" stopTime="0.00" timeLoss="73.68" rerouteNo="1" devices="tripinfo_36 routing_36 emissions_36" vType="human_car" speedFactor="0.99" vaporized="">
        <emissions CO_abs="11286.228049" CO2_abs="346429.400884" HC_abs="59.529015" PMx_abs="7.118418" NOx_abs="148.277345" fuel_abs="148.918732" electricity_abs="0"/>
    </tripinfo>