<?xml version="1.0" encoding="UTF-8"?>

<!-- generated on 2022-07-28 17:14:41 by Eclipse SUMO GUI Version 1.10.0
<configuration xmlns:xsi="http://www.w3.org/2001/XMLSchema-instance" xsi:noNamespaceSchemaLocation="http://sumo.dlr.de/xsd/sumoConfiguration.xsd">

    <input>
        <net-file value="/Users/wangzheng/Desktop/01/sumo/IEEE%20ISC2%202022/sumo_scenario/scenario.net.xml"/>
        <route-files value="/Users/wangzheng/Desktop/01/sumo/IEEE%20ISC2%202022/sumo_scenario/scenario_rl.trips.xml"/>
        <additional-files value="/Users/wangzheng/Desktop/01/sumo/IEEE%20ISC2%202022/sumo_scenario/exercise.add.xml"/>
    </input>

    <output>
        <emission-output value="/Users/wangzheng/Desktop/01/sumo/IEEE%20ISC2%202022/sumo_scenario/emission.xml"/>
        <tripinfo-output value="/Users/wangzheng/Desktop/01/sumo/IEEE%20ISC2%202022/training_tripinfo/XRouting_training/tripinfo_eval.xml"/>
        <tripinfo-output.write-unfinished value="true"/>
    </output>

    <time>
        <begin value="0"/>
    </time>

    <processing>
        <ignore-route-errors value="true"/>
    </processing>

    <routing>
        <routing-algorithm value="dijkstra"/>
    </routing>

    <report>
        <verbose value="true"/>
        <no-step-log value="true"/>
    </report>

    <traci_server>
        <remote-port value="64882"/>
    </traci_server>

</configuration>
-->

<tripinfos xmlns:xsi="http://www.w3.org/2001/XMLSchema-instance" xsi:noNamespaceSchemaLocation="http://sumo.dlr.de/xsd/tripinfo_file.xsd">
    <tripinfo id="rl_38" depart="10.00" departLane="A0A1_0" departPos="5.10" departSpeed="0.00" departDelay="0.00" arrival="41.00" arrivalLane="A1A2_0" arrivalPos="179.20" arrivalSpeed="14.20" duration="31.00" routeLength="378.10" waitingTime="0.00" waitingCount="0" stopTime="0.00" timeLoss="5.60" rerouteNo="0" devices="tripinfo_rl_38 routing_rl_38 emissions_rl_38" vType="rl_car" speedFactor="1.09" vaporized="">
        <emissions CO_abs="1322.302141" CO2_abs="87343.651247" HC_abs="8.027598" PMx_abs="1.487300" NOx_abs="34.970906" fuel_abs="37.545398" electricity_abs="0"/>
    </tripinfo>
    <tripinfo id="rl_12" depart="2.00" departLane="D1D2_0" departPos="5.10" departSpeed="0.00" departDelay="0.00" arrival="45.00" arrivalLane="D2C2_0" arrivalPos="289.57" arrivalSpeed="13.60" duration="43.00" routeLength="486.17" waitingTime="0.00" waitingCount="0" stopTime="0.00" timeLoss="6.75" rerouteNo="0" devices="tripinfo_rl_12 routing_rl_12 emissions_rl_12" vType="rl_car" speedFactor="1.01" vaporized="">
        <emissions CO_abs="1714.210505" CO2_abs="125976.243681" HC_abs="10.691955" PMx_abs="1.993664" NOx_abs="49.462592" fuel_abs="54.152010" electricity_abs="0"/>
    </tripinfo>
    <tripinfo id="rl_50" depart="12.00" departLane="B0B1_0" departPos="5.10" departSpeed="0.00" departDelay="0.00" arrival="45.00" arrivalLane="B1B2_1" arrivalPos="179.20" arrivalSpeed="13.66" duration="33.00" routeLength="374.10" waitingTime="0.00" waitingCount="0" stopTime="0.00" timeLoss="6.86" rerouteNo="2" devices="tripinfo_rl_50 routing_rl_50 emissions_rl_50" vType="rl_car" speedFactor="1.05" vaporized="">
        <emissions CO_abs="1738.558537" CO2_abs="105240.150586" HC_abs="10.389337" PMx_abs="1.927391" NOx_abs="43.417654" fuel_abs="45.238241" electricity_abs="0"/>
    </tripinfo>
    <tripinfo id="rl_68" depart="3.00" departLane="right0D0_0" departPos="5.10" departSpeed="0.00" departDelay="0.00" arrival="51.00" arrivalLane="C0C1_0" arrivalPos="179.19" arrivalSpeed="14.62" duration="48.00" routeLength="583.04" waitingTime="0.00" waitingCount="0" stopTime="0.00" timeLoss="7.79" rerouteNo="2" devices="tripinfo_rl_68 routing_rl_68 emissions_rl_68" vType="rl_car" speedFactor="1.08" vaporized="">
        <emissions CO_abs="1859.356914" CO2_abs="133441.283891" HC_abs="11.542809" PMx_abs="2.261433" NOx_abs="53.373303" fuel_abs="57.360730" electricity_abs="0"/>
    </tripinfo>
    <tripinfo id="rl_36" depart="13.00" departLane="D2D1_0" departPos="5.10" departSpeed="0.00" departDelay="0.00" arrival="52.00" arrivalLane="D1C1_0" arrivalPos="286.53" arrivalSpeed="14.73" duration="39.00" routeLength="474.15" waitingTime="0.00" waitingCount="0" stopTime="0.00" timeLoss="7.96" rerouteNo="2" devices="tripinfo_rl_36 routing_rl_36 emissions_rl_36" vType="rl_car" speedFactor="1.12" vaporized="">
        <emissions CO_abs="1889.367705" CO2_abs="133858.776233" HC_abs="11.740430" PMx_abs="2.317511" NOx_abs="53.874895" fuel_abs="57.540144" electricity_abs="0"/>
    </tripinfo>
    <tripinfo id="rl_65" depart="7.00" departLane="C2C1_0" departPos="5.10" departSpeed="0.00" departDelay="0.00" arrival="54.00" arrivalLane="C1D1_0" arrivalPos="286.53" arrivalSpeed="12.01" duration="47.00" routeLength="479.99" waitingTime="0.00" waitingCount="0" stopTime="0.00" timeLoss="6.86" rerouteNo="2" devices="tripinfo_rl_65 routing_rl_65 emissions_rl_65" vType="rl_car" speedFactor="0.89" vaporized="">
        <emissions CO_abs="1854.949467" CO2_abs="117491.718696" HC_abs="11.164316" PMx_abs="1.846519" NOx_abs="46.521207" fuel_abs="50.505059" electricity_abs="0"/>
    </tripinfo>
    <tripinfo id="rl_60" depart="27.00" departLane="left2A2_0" departPos="5.10" departSpeed="0.00" departDelay="0.00" arrival="56.00" arrivalLane="A2A1_0" arrivalPos="179.20" arrivalSpeed="13.02" duration="29.00" routeLength="283.13" waitingTime="0.00" waitingCount="0" stopTime="0.00" timeLoss="6.46" rerouteNo="2" devices="tripinfo_rl_60 routing_rl_60 emissions_rl_60" vType="rl_car" speedFactor="0.95" vaporized="">
        <emissions CO_abs="1649.185451" CO2_abs="91496.557504" HC_abs="9.664562" PMx_abs="1.686358" NOx_abs="38.041866" fuel_abs="39.330538" electricity_abs="0"/>
    </tripinfo>
    <tripinfo id="rl_6" depart="21.00" departLane="B1A1_0" departPos="5.10" departSpeed="0.00" departDelay="0.00" arrival="73.00" arrivalLane="A2left2_0" arrivalPos="100.00" arrivalSpeed="13.48" duration="52.00" routeLength="584.32" waitingTime="0.00" waitingCount="0" stopTime="0.00" timeLoss="8.84" rerouteNo="3" devices="tripinfo_rl_6 routing_rl_6 emissions_rl_6" vType="rl_car" speedFactor="1.01" vaporized="">
        <emissions CO_abs="2147.746261" CO2_abs="154570.499459" HC_abs="13.333296" PMx_abs="2.481679" NOx_abs="61.118313" fuel_abs="66.443470" electricity_abs="0"/>
    </tripinfo>
    <tripinfo id="6" depart="6.00" departLane="B0B1_0" departPos="5.10" departSpeed="0.00" departDelay="0.00" arrival="79.00" arrivalLane="A1A2_0" arrivalPos="179.20" arrivalSpeed="14.08" duration="73.00" routeLength="664.74" waitingTime="12.00" waitingCount="1" stopTime="0.00" timeLoss="25.96" rerouteNo="1" devices="tripinfo_6 routing_6 emissions_6" vType="human_car" speedFactor="1.05" vaporized="">
        <emissions CO_abs="3928.268655" CO2_abs="206181.669647" HC_abs="22.731301" PMx_abs="3.837751" NOx_abs="85.263855" fuel_abs="88.629057" electricity_abs="0"/>
    </tripinfo>
    <tripinfo id="rl_20" depart="43.00" departLane="C1B1_0" departPos="5.10" departSpeed="0.00" departDelay="0.00" arrival="83.00" arrivalLane="B1B0_1" arrivalPos="179.20" arrivalSpeed="13.91" duration="40.00" routeLength="471.63" waitingTime="0.00" waitingCount="0" stopTime="0.00" timeLoss="5.90" rerouteNo="2" devices="tripinfo_rl_20 routing_rl_20 emissions_rl_20" vType="rl_car" speedFactor="1.04" vaporized="">
        <emissions CO_abs="1705.298196" CO2_abs="117772.654077" HC_abs="10.484652" PMx_abs="2.034847" NOx_abs="47.517014" fuel_abs="50.625432" electricity_abs="0"/>
    </tripinfo>
    <tripinfo id="rl_25" depart="57.00" departLane="D1D0_0" departPos="5.10" departSpeed="0.00" departDelay="0.00" arrival="83.00" arrivalLane="D0right0_1" arrivalPos="92.83" arrivalSpeed="15.15" duration="26.00" routeLength="285.63" waitingTime="0.00" waitingCount="0" stopTime="0.00" timeLoss="6.62" rerouteNo="2" devices="tripinfo_rl_25 routing_rl_25 emissions_rl_25" vType="rl_car" speedFactor="1.14" vaporized="">
        <emissions CO_abs="1712.178627" CO2_abs="103842.146832" HC_abs="10.189123" PMx_abs="1.896032" NOx_abs="42.598867" fuel_abs="44.637317" electricity_abs="0"/>
    </tripinfo>
    <tripinfo id="rl_28" depart="45.00" departLane="C1C2_0" departPos="5.10" departSpeed="0.00" departDelay="0.00" arrival="84.00" arrivalLane="C2B2_1" arrivalPos="279.20" arrivalSpeed="14.11" duration="39.00" routeLength="472.65" waitingTime="0.00" waitingCount="0" stopTime="0.00" timeLoss="6.29" rerouteNo="2" devices="tripinfo_rl_28 routing_rl_28 emissions_rl_28" vType="rl_car" speedFactor="1.09" vaporized="">
        <emissions CO_abs="1673.539985" CO2_abs="122970.330486" HC_abs="10.475053" PMx_abs="2.069234" NOx_abs="49.013336" fuel_abs="52.859713" electricity_abs="0"/>
    </tripinfo>
    <tripinfo id="rl_26" depart="0.00" departLane="D1C1_0" departPos="5.10" departSpeed="0.00" departDelay="0.00" arrival="86.00" arrivalLane="C2B2_1" arrivalPos="279.20" arrivalSpeed="14.35" duration="86.00" routeLength="768.22" waitingTime="18.00" waitingCount="1" stopTime="0.00" timeLoss="32.18" rerouteNo="3" devices="tripinfo_rl_26 routing_rl_26 emissions_rl_26" vType="rl_car" speedFactor="1.06" vaporized="">
        <emissions CO_abs="5218.889201" CO2_abs="235294.233025" HC_abs="29.231802" PMx_abs="4.244923" NOx_abs="96.112364" fuel_abs="101.144221" electricity_abs="0"/>
    </tripinfo>
    <tripinfo id="rl_47" depart="33.00" departLane="C1C2_0" departPos="5.10" departSpeed="0.00" departDelay="0.00" arrival="86.00" arrivalLane="D2D1_0" arrivalPos="183.69" arrivalSpeed="16.01" duration="53.00" routeLength="658.97" waitingTime="0.00" waitingCount="0" stopTime="0.00" timeLoss="11.61" rerouteNo="2" devices="tripinfo_rl_47 routing_rl_47 emissions_rl_47" vType="rl_car" speedFactor="1.17" vaporized="">
        <emissions CO_abs="2793.537923" CO2_abs="190568.369944" HC_abs="17.206213" PMx_abs="3.452018" NOx_abs="77.768993" fuel_abs="81.917011" electricity_abs="0"/>
    </tripinfo>
    <tripinfo id="69" depart="69.00" departLane="D2C2_0" departPos="5.10" departSpeed="0.00" departDelay="0.00" arrival="93.00" arrivalLane="D2C2_0" arrivalPos="289.57" arrivalSpeed="13.38" duration="24.00" routeLength="284.47" waitingTime="0.00" waitingCount="0" stopTime="0.00" timeLoss="3.96" rerouteNo="1" devices="tripinfo_69 routing_69 emissions_69" vType="human_car" speedFactor="1.02" vaporized="">
        <emissions CO_abs="1093.848806" CO2_abs="71796.454718" HC_abs="6.645675" PMx_abs="1.242195" NOx_abs="29.020570" fuel_abs="30.862269" electricity_abs="0"/>
    </tripinfo>
    <tripinfo id="8" depart="8.00" departLane="B2B1_0" departPos="5.10" departSpeed="0.00" departDelay="0.00" arrival="96.00" arrivalLane="C1C2_0" arrivalPos="179.20" arrivalSpeed="6.20" duration="88.00" routeLength="675.06" waitingTime="12.00" waitingCount="2" stopTime="0.00" timeLoss="34.09" rerouteNo="1" devices="tripinfo_8 routing_8 emissions_8" vType="human_car" speedFactor="0.94" vaporized="">
        <emissions CO_abs="4216.834831" CO2_abs="211815.655616" HC_abs="24.172125" PMx_abs="3.868347" NOx_abs="87.771414" fuel_abs="91.051081" electricity_abs="0"/>
    </tripinfo>
    <tripinfo id="rl_54" depart="1.00" departLane="B1C1_0" departPos="5.10" departSpeed="0.00" departDelay="0.00" arrival="99.00" arrivalLane="D0right0_0" arrivalPos="92.83" arrivalSpeed="12.52" duration="98.00" routeLength="881.60" waitingTime="15.00" waitingCount="1" stopTime="0.00" timeLoss="28.76" rerouteNo="4" devices="tripinfo_rl_54 routing_rl_54 emissions_rl_54" vType="rl_car" speedFactor="0.94" vaporized="">
        <emissions CO_abs="4595.191766" CO2_abs="227799.352941" HC_abs="26.238714" PMx_abs="3.962973" NOx_abs="92.554182" fuel_abs="97.922245" electricity_abs="0"/>
    </tripinfo>
    <tripinfo id="rl_2" depart="19.00" departLane="C2B2_0" departPos="5.10" departSpeed="0.00" departDelay="0.00" arrival="100.00" arrivalLane="A2left2_0" arrivalPos="100.00" arrivalSpeed="15.59" duration="81.00" routeLength="694.90" waitingTime="24.00" waitingCount="1" stopTime="0.00" timeLoss="37.70" rerouteNo="4" devices="tripinfo_rl_2 routing_rl_2 emissions_rl_2" vType="rl_car" speedFactor="1.16" vaporized="">
        <emissions CO_abs="5975.118066" CO2_abs="225993.610917" HC_abs="32.513082" PMx_abs="4.397826" NOx_abs="94.254492" fuel_abs="97.146582" electricity_abs="0"/>
    </tripinfo>
    <tripinfo id="rl_18" depart="11.00" departLane="C1C0_0" departPos="5.10" departSpeed="0.00" departDelay="0.00" arrival="101.00" arrivalLane="D0right0_0" arrivalPos="92.83" arrivalSpeed="13.58" duration="90.00" routeLength="593.36" waitingTime="31.00" waitingCount="2" stopTime="0.00" timeLoss="47.62" rerouteNo="4" devices="tripinfo_rl_18 routing_rl_18 emissions_rl_18" vType="rl_car" speedFactor="1.03" vaporized="">
        <emissions CO_abs="6833.673647" CO2_abs="245023.053996" HC_abs="36.879963" PMx_abs="4.826176" NOx_abs="103.483618" fuel_abs="105.326784" electricity_abs="0"/>
    </tripinfo>
    <tripinfo id="rl_14" depart="18.00" departLane="B2A2_0" departPos="5.10" departSpeed="0.00" departDelay="0.00" arrival="103.00" arrivalLane="A2left2_1" arrivalPos="100.00" arrivalSpeed="12.58" duration="85.00" routeLength="394.90" waitingTime="43.00" waitingCount="2" stopTime="0.00" timeLoss="53.88" rerouteNo="4" devices="tripinfo_rl_14 routing_rl_14 emissions_rl_14" vType="rl_car" speedFactor="0.94" vaporized="">
        <emissions CO_abs="8514.903205" CO2_abs="223339.723033" HC_abs="44.009667" PMx_abs="4.698700" NOx_abs="96.504216" fuel_abs="96.007356" electricity_abs="0"/>
    </tripinfo>
    <tripinfo id="rl_46" depart="61.00" departLane="A1B1_0" departPos="5.10" departSpeed="0.00" departDelay="0.00" arrival="105.00" arrivalLane="B1B2_0" arrivalPos="179.20" arrivalSpeed="10.02" duration="44.00" routeLength="471.63" waitingTime="0.00" waitingCount="0" stopTime="0.00" timeLoss="12.87" rerouteNo="2" devices="tripinfo_rl_46 routing_rl_46 emissions_rl_46" vType="rl_car" speedFactor="1.12" vaporized="">
        <emissions CO_abs="2438.181264" CO2_abs="157131.716156" HC_abs="14.737838" PMx_abs="2.755275" NOx_abs="63.901618" fuel_abs="67.544265" electricity_abs="0"/>
    </tripinfo>
    <tripinfo id="rl_24" depart="79.00" departLane="right0D0_0" departPos="5.10" departSpeed="0.00" departDelay="0.00" arrival="106.00" arrivalLane="D0D1_0" arrivalPos="178.54" arrivalSpeed="14.85" duration="27.00" routeLength="275.30" waitingTime="0.00" waitingCount="0" stopTime="0.00" timeLoss="7.65" rerouteNo="2" devices="tripinfo_rl_24 routing_rl_24 emissions_rl_24" vType="rl_car" speedFactor="1.09" vaporized="">
        <emissions CO_abs="1687.729345" CO2_abs="101610.331246" HC_abs="10.031524" PMx_abs="1.802524" NOx_abs="41.481170" fuel_abs="43.678034" electricity_abs="0"/>
    </tripinfo>
    <tripinfo id="rl_32" depart="36.00" departLane="C0B0_0" departPos="5.10" departSpeed="0.00" departDelay="0.00" arrival="107.00" arrivalLane="B0B1_0" arrivalPos="179.20" arrivalSpeed="13.25" duration="71.00" routeLength="462.33" waitingTime="27.00" waitingCount="1" stopTime="0.00" timeLoss="36.18" rerouteNo="3" devices="tripinfo_rl_32 routing_rl_32 emissions_rl_32" vType="rl_car" speedFactor="0.97" vaporized="">
        <emissions CO_abs="5708.510440" CO2_abs="186486.896141" HC_abs="30.351392" PMx_abs="3.599213" NOx_abs="78.163018" fuel_abs="80.164710" electricity_abs="0"/>
    </tripinfo>
    <tripinfo id="rl_37" depart="29.00" departLane="B2C2_0" departPos="5.10" departSpeed="0.00" departDelay="0.00" arrival="108.00" arrivalLane="C2C1_0" arrivalPos="179.20" arrivalSpeed="12.71" duration="79.00" routeLength="462.33" waitingTime="32.00" waitingCount="1" stopTime="0.00" timeLoss="42.18" rerouteNo="3" devices="tripinfo_rl_37 routing_rl_37 emissions_rl_37" vType="rl_car" speedFactor="0.93" vaporized="">
        <emissions CO_abs="6715.957038" CO2_abs="204517.156880" HC_abs="35.349870" PMx_abs="3.971545" NOx_abs="85.974291" fuel_abs="87.915681" electricity_abs="0"/>
    </tripinfo>
    <tripinfo id="rl_67" depart="31.00" departLane="A2A1_0" departPos="5.10" departSpeed="0.00" departDelay="0.00" arrival="108.00" arrivalLane="A1A0_1" arrivalPos="183.20" arrivalSpeed="15.47" duration="77.00" routeLength="378.10" waitingTime="39.00" waitingCount="1" stopTime="0.00" timeLoss="52.76" rerouteNo="3" devices="tripinfo_rl_67 routing_rl_67 emissions_rl_67" vType="rl_car" speedFactor="1.15" vaporized="">
        <emissions CO_abs="7968.941045" CO2_abs="229530.600317" HC_abs="41.623672" PMx_abs="4.817275" NOx_abs="98.701372" fuel_abs="98.668014" electricity_abs="0"/>
    </tripinfo>
    <tripinfo id="rl_71" depart="35.00" departLane="A2A1_0" departPos="5.10" departSpeed="0.00" departDelay="0.00" arrival="108.00" arrivalLane="A1A0_0" arrivalPos="183.20" arrivalSpeed="13.32" duration="73.00" routeLength="378.10" waitingTime="31.00" waitingCount="2" stopTime="0.00" timeLoss="45.85" rerouteNo="2" devices="tripinfo_rl_71 routing_rl_71 emissions_rl_71" vType="rl_car" speedFactor="1.02" vaporized="">
        <emissions CO_abs="5755.424697" CO2_abs="180154.256874" HC_abs="30.440570" PMx_abs="3.691942" NOx_abs="77.174454" fuel_abs="77.442360" electricity_abs="0"/>
    </tripinfo>
    <tripinfo id="rl_53" depart="32.00" departLane="left2A2_0" departPos="5.10" departSpeed="0.00" departDelay="0.00" arrival="110.00" arrivalLane="A1A0_0" arrivalPos="183.20" arrivalSpeed="13.43" duration="78.00" routeLength="487.13" waitingTime="23.00" waitingCount="2" stopTime="0.00" timeLoss="42.33" rerouteNo="2" devices="tripinfo_rl_53 routing_rl_53 emissions_rl_53" vType="rl_car" speedFactor="1.01" vaporized="">
        <emissions CO_abs="4791.030919" CO2_abs="190658.775703" HC_abs="26.293319" PMx_abs="3.651457" NOx_abs="80.044005" fuel_abs="81.957183" electricity_abs="0"/>
    </tripinfo>
    <tripinfo id="rl_62" depart="35.00" departLane="left2A2_0" departPos="5.10" departSpeed="0.00" departDelay="1.00" arrival="111.00" arrivalLane="A1A0_1" arrivalPos="183.20" arrivalSpeed="13.81" duration="76.00" routeLength="487.13" waitingTime="25.00" waitingCount="1" stopTime="0.00" timeLoss="39.73" rerouteNo="3" devices="tripinfo_rl_62 routing_rl_62 emissions_rl_62" vType="rl_car" speedFactor="0.99" vaporized="">
        <emissions CO_abs="6675.895862" CO2_abs="224058.581481" HC_abs="35.646932" PMx_abs="4.458389" NOx_abs="95.021097" fuel_abs="96.315178" electricity_abs="0"/>
    </tripinfo>
    <tripinfo id="rl_8" depart="4.00" departLane="D0D1_0" departPos="5.10" departSpeed="0.00" departDelay="0.00" arrival="112.00" arrivalLane="B2A2_0" arrivalPos="279.20" arrivalSpeed="13.88" duration="108.00" routeLength="1266.14" waitingTime="0.00" waitingCount="0" stopTime="0.00" timeLoss="17.38" rerouteNo="4" devices="tripinfo_rl_8 routing_rl_8 emissions_rl_8" vType="rl_car" speedFactor="1.03" vaporized="">
        <emissions CO_abs="3930.775871" CO2_abs="295578.913925" HC_abs="24.803226" PMx_abs="4.881034" NOx_abs="117.577203" fuel_abs="127.056835" electricity_abs="0"/>
    </tripinfo>
    <tripinfo id="rl_30" depart="17.00" departLane="A2B2_0" departPos="5.10" departSpeed="0.00" departDelay="0.00" arrival="112.00" arrivalLane="C2C1_0" arrivalPos="179.20" arrivalSpeed="12.97" duration="95.00" routeLength="762.33" waitingTime="22.00" waitingCount="2" stopTime="0.00" timeLoss="35.34" rerouteNo="4" devices="tripinfo_rl_30 routing_rl_30 emissions_rl_30" vType="rl_car" speedFactor="0.94" vaporized="">
        <emissions CO_abs="5022.361328" CO2_abs="201641.334151" HC_abs="27.575078" PMx_abs="3.668377" NOx_abs="82.978983" fuel_abs="86.678482" electricity_abs="0"/>
    </tripinfo>
    <tripinfo id="rl_4" depart="30.00" departLane="B0A0_0" departPos="5.10" departSpeed="0.00" departDelay="0.00" arrival="112.00" arrivalLane="A1B1_1" arrivalPos="279.20" arrivalSpeed="15.73" duration="82.00" routeLength="752.11" waitingTime="18.00" waitingCount="1" stopTime="0.00" timeLoss="35.64" rerouteNo="3" devices="tripinfo_rl_4 routing_rl_4 emissions_rl_4" vType="rl_car" speedFactor="1.18" vaporized="">
        <emissions CO_abs="5410.873770" CO2_abs="258083.707708" HC_abs="30.671551" PMx_abs="4.876818" NOx_abs="106.802555" fuel_abs="110.939963" electricity_abs="0"/>
    </tripinfo>
    <tripinfo id="rl_11" depart="22.00" departLane="A1B1_0" departPos="5.10" departSpeed="0.00" departDelay="0.00" arrival="114.00" arrivalLane="C0D0_0" arrivalPos="286.30" arrivalSpeed="13.46" duration="92.00" routeLength="1067.99" waitingTime="0.00" waitingCount="0" stopTime="0.00" timeLoss="11.46" rerouteNo="4" devices="tripinfo_rl_11 routing_rl_11 emissions_rl_11" vType="rl_car" speedFactor="0.98" vaporized="">
        <emissions CO_abs="2963.595095" CO2_abs="229684.651558" HC_abs="18.844199" PMx_abs="3.714840" NOx_abs="90.974101" fuel_abs="98.731717" electricity_abs="0"/>
    </tripinfo>
    <tripinfo id="rl_23" depart="40.00" departLane="B2B1_0" departPos="5.10" departSpeed="0.00" departDelay="0.00" arrival="114.00" arrivalLane="B1A1_0" arrivalPos="279.20" arrivalSpeed="13.62" duration="74.00" routeLength="462.33" waitingTime="31.00" waitingCount="1" stopTime="0.00" timeLoss="40.68" rerouteNo="3" devices="tripinfo_rl_23 routing_rl_23 emissions_rl_23" vType="rl_car" speedFactor="1.03" vaporized="">
        <emissions CO_abs="6093.272966" CO2_abs="187996.801676" HC_abs="32.156888" PMx_abs="3.779096" NOx_abs="79.832563" fuel_abs="80.813823" electricity_abs="0"/>
    </tripinfo>
    <tripinfo id="14" depart="14.00" departLane="B1A1_0" departPos="5.10" departSpeed="0.00" departDelay="0.00" arrival="115.00" arrivalLane="A0B0_1" arrivalPos="283.20" arrivalSpeed="13.20" duration="101.00" routeLength="772.75" waitingTime="26.00" waitingCount="2" stopTime="0.00" timeLoss="43.40" rerouteNo="1" devices="tripinfo_14 routing_14 emissions_14" vType="human_car" speedFactor="0.99" vaporized="">
        <emissions CO_abs="6190.525823" CO2_abs="267939.111802" HC_abs="34.455271" PMx_abs="4.933226" NOx_abs="110.471505" fuel_abs="115.177065" electricity_abs="0"/>
    </tripinfo>
    <tripinfo id="26" depart="28.00" departLane="D2C2_0" departPos="5.10" departSpeed="0.00" departDelay="2.00" arrival="117.00" arrivalLane="C2B2_0" arrivalPos="279.20" arrivalSpeed="12.07" duration="89.00" routeLength="584.46" waitingTime="32.00" waitingCount="1" stopTime="0.00" timeLoss="42.80" rerouteNo="0" devices="tripinfo_26 routing_26 emissions_26" vType="human_car" speedFactor="0.92" vaporized="">
        <emissions CO_abs="6829.016509" CO2_abs="222580.591933" HC_abs="36.277379" PMx_abs="4.193689" NOx_abs="92.628464" fuel_abs="95.680397" electricity_abs="0"/>
    </tripinfo>
    <tripinfo id="71" depart="83.00" departLane="A0A1_0" departPos="5.10" departSpeed="0.00" departDelay="12.00" arrival="122.00" arrivalLane="A1A0_1" arrivalPos="183.20" arrivalSpeed="12.44" duration="39.00" routeLength="365.98" waitingTime="2.00" waitingCount="1" stopTime="0.00" timeLoss="10.99" rerouteNo="0" devices="tripinfo_71 routing_71 emissions_71" vType="human_car" speedFactor="0.97" vaporized="">
        <emissions CO_abs="2042.877209" CO2_abs="111947.814672" HC_abs="11.935746" PMx_abs="2.109353" NOx_abs="46.790905" fuel_abs="48.121631" electricity_abs="0"/>
    </tripinfo>
    <tripinfo id="39" depart="39.00" departLane="D1C1_0" departPos="5.10" departSpeed="0.00" departDelay="0.00" arrival="131.00" arrivalLane="D2D1_0" arrivalPos="183.69" arrivalSpeed="11.48" duration="92.00" routeLength="954.54" waitingTime="0.00" waitingCount="0" stopTime="0.00" timeLoss="13.52" rerouteNo="1" devices="tripinfo_39 routing_39 emissions_39" vType="human_car" speedFactor="0.90" vaporized="">
        <emissions CO_abs="3596.969723" CO2_abs="233423.432448" HC_abs="21.832646" PMx_abs="3.948931" NOx_abs="94.400705" fuel_abs="100.339013" electricity_abs="0"/>
    </tripinfo>
    <tripinfo id="38" depart="38.00" departLane="B1A1_0" departPos="5.10" departSpeed="0.00" departDelay="0.00" arrival="133.00" arrivalLane="C2C1_0" arrivalPos="179.20" arrivalSpeed="15.03" duration="95.00" routeLength="1238.79" waitingTime="0.00" waitingCount="0" stopTime="0.00" timeLoss="11.64" rerouteNo="1" devices="tripinfo_38 routing_38 emissions_38" vType="human_car" speedFactor="1.10" vaporized="">
        <emissions CO_abs="3618.319173" CO2_abs="290901.865265" HC_abs="23.267968" PMx_abs="5.037838" NOx_abs="116.671304" fuel_abs="125.045844" electricity_abs="0"/>
    </tripinfo>
    <tripinfo id="64" depart="64.00" departLane="C1C2_0" departPos="5.10" departSpeed="0.00" departDelay="0.00" arrival="135.00" arrivalLane="B2C2_0" arrivalPos="279.20" arrivalSpeed="11.95" duration="71.00" routeLength="756.53" waitingTime="0.00" waitingCount="0" stopTime="0.00" timeLoss="10.24" rerouteNo="1" devices="tripinfo_64 routing_64 emissions_64" vType="human_car" speedFactor="0.94" vaporized="">
        <emissions CO_abs="2514.930307" CO2_abs="167982.823066" HC_abs="15.376876" PMx_abs="2.816606" NOx_abs="67.579900" fuel_abs="72.208816" electricity_abs="0"/>
    </tripinfo>
    <tripinfo id="rl_16" depart="95.00" departLane="D0C0_0" departPos="5.10" departSpeed="0.00" departDelay="0.00" arrival="135.00" arrivalLane="C0C1_0" arrivalPos="179.19" arrivalSpeed="13.94" duration="40.00" routeLength="469.42" waitingTime="0.00" waitingCount="0" stopTime="0.00" timeLoss="7.19" rerouteNo="2" devices="tripinfo_rl_16 routing_rl_16 emissions_rl_16" vType="rl_car" speedFactor="1.06" vaporized="">
        <emissions CO_abs="1767.168709" CO2_abs="129256.285572" HC_abs="11.017114" PMx_abs="2.146765" NOx_abs="51.454361" fuel_abs="55.561811" electricity_abs="0"/>
    </tripinfo>
    <tripinfo id="rl_10" depart="84.00" departLane="A1A0_0" departPos="5.10" departSpeed="0.00" departDelay="0.00" arrival="137.00" arrivalLane="B0B1_1" arrivalPos="179.20" arrivalSpeed="15.03" duration="53.00" routeLength="672.76" waitingTime="0.00" waitingCount="0" stopTime="0.00" timeLoss="9.74" rerouteNo="3" devices="tripinfo_rl_10 routing_rl_10 emissions_rl_10" vType="rl_car" speedFactor="1.15" vaporized="">
        <emissions CO_abs="2562.589323" CO2_abs="184700.826230" HC_abs="15.931976" PMx_abs="3.262949" NOx_abs="74.717724" fuel_abs="79.394811" electricity_abs="0"/>
    </tripinfo>
    <tripinfo id="82" depart="82.00" departLane="B2A2_0" departPos="5.10" departSpeed="0.00" departDelay="0.00" arrival="138.00" arrivalLane="A1A0_0" arrivalPos="183.20" arrivalSpeed="12.85" duration="56.00" routeLength="679.30" waitingTime="0.00" waitingCount="0" stopTime="0.00" timeLoss="7.19" rerouteNo="1" devices="tripinfo_82 routing_82 emissions_82" vType="human_car" speedFactor="1.02" vaporized="">
        <emissions CO_abs="2027.970464" CO2_abs="153363.114050" HC_abs="12.832416" PMx_abs="2.572285" NOx_abs="61.295660" fuel_abs="65.924224" electricity_abs="0"/>
    </tripinfo>
    <tripinfo id="rl_7" depart="121.00" departLane="C2C1_0" departPos="5.10" departSpeed="0.00" departDelay="0.00" arrival="138.00" arrivalLane="C2C1_0" arrivalPos="179.20" arrivalSpeed="14.35" duration="17.00" routeLength="174.10" waitingTime="0.00" waitingCount="0" stopTime="0.00" timeLoss="4.92" rerouteNo="1" devices="tripinfo_rl_7 routing_rl_7 emissions_rl_7" vType="rl_car" speedFactor="1.10" vaporized="">
        <emissions CO_abs="1223.682577" CO2_abs="67179.711542" HC_abs="7.143361" PMx_abs="1.254843" NOx_abs="27.888524" fuel_abs="28.877742" electricity_abs="0"/>
    </tripinfo>
    <tripinfo id="rl_72" depart="41.00" departLane="B0A0_0" departPos="5.10" departSpeed="0.00" departDelay="0.00" arrival="141.00" arrivalLane="A1B1_1" arrivalPos="279.20" arrivalSpeed="6.61" duration="100.00" routeLength="752.11" waitingTime="17.00" waitingCount="4" stopTime="0.00" timeLoss="42.49" rerouteNo="3" devices="tripinfo_rl_72 routing_rl_72 emissions_rl_72" vType="rl_car" speedFactor="0.96" vaporized="">
        <emissions CO_abs="4976.175410" CO2_abs="228942.158152" HC_abs="28.001951" PMx_abs="4.120507" NOx_abs="94.302367" fuel_abs="98.413547" electricity_abs="0"/>
    </tripinfo>
    <tripinfo id="rl_29" depart="46.00" departLane="B1A1_0" departPos="5.10" departSpeed="0.00" departDelay="0.00" arrival="141.00" arrivalLane="B0C0_0" arrivalPos="279.20" arrivalSpeed="13.06" duration="95.00" routeLength="1072.75" waitingTime="1.00" waitingCount="1" stopTime="0.00" timeLoss="15.44" rerouteNo="4" devices="tripinfo_rl_29 routing_rl_29 emissions_rl_29" vType="rl_car" speedFactor="1.00" vaporized="">
        <emissions CO_abs="3090.535682" CO2_abs="234378.244847" HC_abs="19.476061" PMx_abs="3.572152" NOx_abs="91.015254" fuel_abs="100.749724" electricity_abs="0"/>
    </tripinfo>
    <tripinfo id="16" depart="16.00" departLane="B0B1_0" departPos="5.10" departSpeed="0.00" departDelay="0.00" arrival="142.00" arrivalLane="D2D1_0" arrivalPos="183.69" arrivalSpeed="11.83" duration="126.00" routeLength="1158.96" waitingTime="4.00" waitingCount="2" stopTime="0.00" timeLoss="29.13" rerouteNo="1" devices="tripinfo_16 routing_16 emissions_16" vType="human_car" speedFactor="0.88" vaporized="">
        <emissions CO_abs="5043.882066" CO2_abs="298966.048742" HC_abs="29.915879" PMx_abs="4.942485" NOx_abs="120.232356" fuel_abs="128.513597" electricity_abs="0"/>
    </tripinfo>
    <tripinfo id="rl_21" depart="97.00" departLane="D2D1_0" departPos="5.10" departSpeed="0.00" departDelay="4.00" arrival="143.00" arrivalLane="D1C1_1" arrivalPos="286.53" arrivalSpeed="11.96" duration="46.00" routeLength="474.15" waitingTime="0.00" waitingCount="0" stopTime="0.00" timeLoss="6.98" rerouteNo="2" devices="tripinfo_rl_21 routing_rl_21 emissions_rl_21" vType="rl_car" speedFactor="0.92" vaporized="">
        <emissions CO_abs="1841.482878" CO2_abs="113431.035032" HC_abs="11.024100" PMx_abs="1.869155" NOx_abs="45.478286" fuel_abs="48.759442" electricity_abs="0"/>
    </tripinfo>
    <tripinfo id="rl_55" depart="99.00" departLane="C2C1_0" departPos="5.10" departSpeed="0.00" departDelay="0.00" arrival="143.00" arrivalLane="C1B1_0" arrivalPos="279.20" arrivalSpeed="8.71" duration="44.00" routeLength="462.33" waitingTime="0.00" waitingCount="0" stopTime="0.00" timeLoss="12.36" rerouteNo="2" devices="tripinfo_rl_55 routing_rl_55 emissions_rl_55" vType="rl_car" speedFactor="1.10" vaporized="">