<?xml version="1.0" encoding="UTF-8"?>

<!-- generated on 2022-07-28 16:07:25 by Eclipse SUMO sumo Version 1.10.0
<configuration xmlns:xsi="http://www.w3.org/2001/XMLSchema-instance" xsi:noNamespaceSchemaLocation="http://sumo.dlr.de/xsd/sumoConfiguration.xsd">

    <input>
        <net-file value="/Users/wangzheng/Desktop/01/sumo/IEEE%20ISC2%202022/sumo_scenario/scenario.net.xml"/>
        <route-files value="/Users/wangzheng/Desktop/01/sumo/IEEE%20ISC2%202022/sumo_scenario/scenario.trips.xml"/>
        <additional-files value="/Users/wangzheng/Desktop/01/sumo/IEEE%20ISC2%202022/sumo_scenario/exercise.add.xml"/>
    </input>

    <output>
        <emission-output value="/Users/wangzheng/Desktop/01/sumo/IEEE%20ISC2%202022/sumo_scenario/emission.xml"/>
        <tripinfo-output value="/Users/wangzheng/Desktop/01/sumo/IEEE%20ISC2%202022/training_tripinfo/DQN_training/tripinfo2.xml"/>
        <tripinfo-output.write-unfinished value="true"/>
    </output>

    <time>
        <begin value="0"/>
    </time>

    <processing>
        <ignore-route-errors value="true"/>
    </processing>

    <routing>
        <routing-algorithm value="dijkstra"/>
    </routing>

    <report>
        <verbose value="true"/>
        <no-step-log value="true"/>
    </report>

    <traci_server>
        <remote-port value="62197"/>
    </traci_server>

</configuration>
-->

<tripinfos xmlns:xsi="http://www.w3.org/2001/XMLSchema-instance" xsi:noNamespaceSchemaLocation="http://sumo.dlr.de/xsd/tripinfo_file.xsd">
    <tripinfo id="0" depart="0.00" departLane="B0B1_0" departPos="5.10" departSpeed="0.00" departDelay="0.00" arrival="39.00" arrivalLane="B1C1_0" arrivalPos="279.20" arrivalSpeed="14.37" duration="39.00" routeLength="462.33" waitingTime="0.00" waitingCount="0" stopTime="0.00" timeLoss="6.53" rerouteNo="0" devices="tripinfo_0 routing_0 emissions_0" vType="human_car" speedFactor="1.06" vaporized="">
        <emissions CO_abs="1815.323894" CO2_abs="122197.125362" HC_abs="11.152379" PMx_abs="2.194094" NOx_abs="49.928899" fuel_abs="52.527236" electricity_abs="0"/>
    </tripinfo>
    <tripinfo id="20" depart="20.00" departLane="A2B2_0" departPos="5.10" departSpeed="0.00" departDelay="0.00" arrival="61.00" arrivalLane="B2B1_0" arrivalPos="179.20" arrivalSpeed="13.80" duration="41.00" routeLength="462.33" waitingTime="0.00" waitingCount="0" stopTime="0.00" timeLoss="7.06" rerouteNo="0" devices="tripinfo_20 routing_20 emissions_20" vType="human_car" speedFactor="1.02" vaporized="">
        <emissions CO_abs="1984.172023" CO2_abs="131591.842604" HC_abs="12.134786" PMx_abs="2.358316" NOx_abs="53.850635" fuel_abs="56.565636" electricity_abs="0"/>
    </tripinfo>
    <tripinfo id="10" depart="10.00" departLane="B1A1_0" departPos="5.10" departSpeed="0.00" departDelay="0.00" arrival="65.00" arrivalLane="A1A0_0" arrivalPos="183.20" arrivalSpeed="5.85" duration="55.00" routeLength="476.65" waitingTime="9.00" waitingCount="1" stopTime="0.00" timeLoss="22.82" rerouteNo="0" devices="tripinfo_10 routing_10 emissions_10" vType="human_car" speedFactor="1.09" vaporized="">
        <emissions CO_abs="2855.200063" CO2_abs="153768.499298" HC_abs="16.593392" PMx_abs="2.884884" NOx_abs="63.771611" fuel_abs="66.098674" electricity_abs="0"/>
    </tripinfo>
    <tripinfo id="12" depart="12.00" departLane="D1C1_0" departPos="5.10" departSpeed="0.00" departDelay="0.00" arrival="70.00" arrivalLane="C1B1_1" arrivalPos="279.20" arrivalSpeed="14.28" duration="58.00" routeLength="581.44" waitingTime="6.00" waitingCount="1" stopTime="0.00" timeLoss="17.19" rerouteNo="0" devices="tripinfo_12 routing_12 emissions_12" vType="human_car" speedFactor="1.05" vaporized="">
        <emissions CO_abs="2344.778069" CO2_abs="160032.858089" HC_abs="14.405984" PMx_abs="2.763325" NOx_abs="64.507935" fuel_abs="68.791325" electricity_abs="0"/>
    </tripinfo>
    <tripinfo id="31" depart="31.00" departLane="A1B1_0" departPos="5.10" departSpeed="0.00" departDelay="0.00" arrival="71.00" arrivalLane="B1B2_1" arrivalPos="179.20" arrivalSpeed="10.52" duration="40.00" routeLength="474.11" waitingTime="0.00" waitingCount="0" stopTime="0.00" timeLoss="10.41" rerouteNo="0" devices="tripinfo_31 routing_31 emissions_31" vType="human_car" speedFactor="1.18" vaporized="">
        <emissions CO_abs="1882.901857" CO2_abs="123511.558943" HC_abs="11.437574" PMx_abs="2.235280" NOx_abs="50.634864" fuel_abs="53.092252" electricity_abs="0"/>
    </tripinfo>
    <tripinfo id="1" depart="1.00" departLane="D1C1_0" departPos="5.10" departSpeed="0.00" departDelay="0.00" arrival="72.00" arrivalLane="C1B1_0" arrivalPos="279.20" arrivalSpeed="12.30" duration="71.00" routeLength="581.44" waitingTime="16.00" waitingCount="1" stopTime="0.00" timeLoss="25.70" rerouteNo="0" devices="tripinfo_1 routing_1 emissions_1" vType="human_car" speedFactor="0.94" vaporized="">
        <emissions CO_abs="3884.675075" CO2_abs="165675.242118" HC_abs="21.552120" PMx_abs="2.960782" NOx_abs="67.852168" fuel_abs="71.217803" electricity_abs="0"/>
    </tripinfo>
    <tripinfo id="11" depart="11.00" departLane="B1B2_0" departPos="5.10" departSpeed="0.00" departDelay="0.00" arrival="72.00" arrivalLane="B2A2_0" arrivalPos="279.20" arrivalSpeed="5.68" duration="61.00" routeLength="472.65" waitingTime="15.00" waitingCount="1" stopTime="0.00" timeLoss="27.09" rerouteNo="0" devices="tripinfo_11 routing_11 emissions_11" vType="human_car" speedFactor="1.03" vaporized="">
        <emissions CO_abs="4200.064096" CO2_abs="164439.169592" HC_abs="22.987290" PMx_abs="3.238515" NOx_abs="69.514633" fuel_abs="70.686269" electricity_abs="0"/>
    </tripinfo>
    <tripinfo id="21" depart="21.00" departLane="D1C1_0" departPos="5.10" departSpeed="0.00" departDelay="0.00" arrival="72.00" arrivalLane="C1B1_1" arrivalPos="279.20" arrivalSpeed="13.50" duration="51.00" routeLength="581.44" waitingTime="0.00" waitingCount="0" stopTime="0.00" timeLoss="9.22" rerouteNo="0" devices="tripinfo_21 routing_21 emissions_21" vType="human_car" speedFactor="1.01" vaporized="">
        <emissions CO_abs="2111.127219" CO2_abs="138158.560228" HC_abs="12.852992" PMx_abs="2.385857" NOx_abs="55.916089" fuel_abs="59.388550" electricity_abs="0"/>
    </tripinfo>
    <tripinfo id="35" depart="38.00" departLane="B1C1_0" departPos="5.10" departSpeed="0.00" departDelay="3.00" arrival="75.00" arrivalLane="C1C0_0" arrivalPos="179.19" arrivalSpeed="15.08" duration="37.00" routeLength="462.33" waitingTime="0.00" waitingCount="0" stopTime="0.00" timeLoss="7.46" rerouteNo="0" devices="tripinfo_35 routing_35 emissions_35" vType="human_car" speedFactor="1.17" vaporized="">
        <emissions CO_abs="1986.132313" CO2_abs="136425.650767" HC_abs="12.230573" PMx_abs="2.505569" NOx_abs="55.843144" fuel_abs="58.643358" electricity_abs="0"/>
    </tripinfo>
    <tripinfo id="30" depart="32.00" departLane="D1C1_0" departPos="5.10" departSpeed="0.00" departDelay="2.00" arrival="83.00" arrivalLane="C1B1_0" arrivalPos="279.20" arrivalSpeed="11.68" duration="51.00" routeLength="581.44" waitingTime="0.00" waitingCount="0" stopTime="0.00" timeLoss="5.39" rerouteNo="0" devices="tripinfo_30 routing_30 emissions_30" vType="human_car" speedFactor="0.93" vaporized="">
        <emissions CO_abs="1523.649678" CO2_abs="115631.102477" HC_abs="9.622640" PMx_abs="1.795385" NOx_abs="45.317114" fuel_abs="49.705063" electricity_abs="0"/>
    </tripinfo>
    <tripinfo id="37" depart="37.00" departLane="D1C1_0" departPos="5.10" departSpeed="0.00" departDelay="0.00" arrival="83.00" arrivalLane="C1B1_1" arrivalPos="279.20" arrivalSpeed="13.64" duration="46.00" routeLength="581.44" waitingTime="0.00" waitingCount="0" stopTime="0.00" timeLoss="4.79" rerouteNo="0" devices="tripinfo_37 routing_37 emissions_37" vType="human_car" speedFactor="1.02" vaporized="">
        <emissions CO_abs="1373.267477" CO2_abs="116676.660509" HC_abs="8.923002" PMx_abs="1.818506" NOx_abs="45.426408" fuel_abs="50.154380" electricity_abs="0"/>
    </tripinfo>
    <tripinfo id="27" depart="28.00" departLane="B1C1_0" departPos="5.10" departSpeed="0.00" departDelay="1.00" arrival="87.00" arrivalLane="C1B1_0" arrivalPos="279.20" arrivalSpeed="12.69" duration="59.00" routeLength="557.98" waitingTime="4.00" waitingCount="1" stopTime="0.00" timeLoss="14.52" rerouteNo="0" devices="tripinfo_27 routing_27 emissions_27" vType="human_car" speedFactor="0.95" vaporized="">
        <emissions CO_abs="2329.817278" CO2_abs="140079.855379" HC_abs="13.879807" PMx_abs="2.375927" NOx_abs="56.549433" fuel_abs="60.214648" electricity_abs="0"/>
    </tripinfo>
    <tripinfo id="8" depart="10.00" departLane="right0D0_0" departPos="5.10" departSpeed="0.00" departDelay="2.00" arrival="90.00" arrivalLane="C1B1_0" arrivalPos="279.20" arrivalSpeed="10.29" duration="80.00" routeLength="881.22" waitingTime="0.00" waitingCount="0" stopTime="0.00" timeLoss="10.21" rerouteNo="1" devices="tripinfo_8 routing_8 emissions_8" vType="human_car" speedFactor="0.94" vaporized="">
        <emissions CO_abs="2968.697801" CO2_abs="209925.240633" HC_abs="18.429654" PMx_abs="3.517246" NOx_abs="84.325050" fuel_abs="90.237980" electricity_abs="0"/>
    </tripinfo>
    <tripinfo id="26" depart="26.00" departLane="C1B1_0" departPos="5.10" departSpeed="0.00" departDelay="0.00" arrival="95.00" arrivalLane="B2C2_0" arrivalPos="279.20" arrivalSpeed="11.58" duration="69.00" routeLength="750.56" waitingTime="0.00" waitingCount="0" stopTime="0.00" timeLoss="8.83" rerouteNo="1" devices="tripinfo_26 routing_26 emissions_26" vType="human_car" speedFactor="0.92" vaporized="">
        <emissions CO_abs="2291.605087" CO2_abs="170029.869377" HC_abs="14.392311" PMx_abs="2.722441" NOx_abs="67.471640" fuel_abs="73.088745" electricity_abs="0"/>
    </tripinfo>
    <tripinfo id="50" depart="50.00" departLane="D1C1_0" departPos="5.10" departSpeed="0.00" departDelay="0.00" arrival="102.00" arrivalLane="C1B1_1" arrivalPos="279.20" arrivalSpeed="12.27" duration="52.00" routeLength="581.44" waitingTime="0.00" waitingCount="0" stopTime="0.00" timeLoss="4.96" rerouteNo="0" devices="tripinfo_50 routing_50 emissions_50" vType="human_car" speedFactor="0.90" vaporized="">
        <emissions CO_abs="1608.949611" CO2_abs="116458.520107" HC_abs="10.042211" PMx_abs="1.900991" NOx_abs="46.483921" fuel_abs="50.060632" electricity_abs="0"/>
    </tripinfo>
    <tripinfo id="64" depart="64.00" departLane=":B1_16_0" departPos="5.10" departSpeed="0.00" departDelay="0.00" arrival="103.00" arrivalLane="B2C2_0" arrivalPos="279.20" arrivalSpeed="15.08" duration="39.00" routeLength="483.13" waitingTime="0.00" waitingCount="0" stopTime="0.00" timeLoss="6.64" rerouteNo="1" devices="tripinfo_64 routing_64 emissions_64" vType="human_car" speedFactor="1.12" vaporized="">
        <emissions CO_abs="1867.517252" CO2_abs="125226.710781" HC_abs="11.429520" PMx_abs="2.308206" NOx_abs="51.469841" fuel_abs="53.829438" electricity_abs="0"/>
    </tripinfo>
    <tripinfo id="88" depart="88.00" departLane="C1C2_0" departPos="5.10" departSpeed="0.00" departDelay="0.00" arrival="105.00" arrivalLane="C1C2_1" arrivalPos="179.20" arrivalSpeed="10.72" duration="17.00" routeLength="174.10" waitingTime="0.00" waitingCount="0" stopTime="0.00" timeLoss="5.75" rerouteNo="1" devices="tripinfo_88 routing_88 emissions_88" vType="human_car" speedFactor="1.15" vaporized="">
        <emissions CO_abs="1407.335072" CO2_abs="78470.747309" HC_abs="8.275554" PMx_abs="1.536665" NOx_abs="33.117695" fuel_abs="33.731153" electricity_abs="0"/>
    </tripinfo>
    <tripinfo id="58" depart="59.00" departLane="D1C1_0" departPos="5.10" departSpeed="0.00" departDelay="1.00" arrival="107.00" arrivalLane="C1B1_1" arrivalPos="279.20" arrivalSpeed="13.29" duration="48.00" routeLength="581.44" waitingTime="0.00" waitingCount="0" stopTime="0.00" timeLoss="5.72" rerouteNo="0" devices="tripinfo_58 routing_58 emissions_58" vType="human_car" speedFactor="1.00" vaporized="">
        <emissions CO_abs="1585.992807" CO2_abs="127773.202683" HC_abs="10.156296" PMx_abs="1.995922" NOx_abs="49.909482" fuel_abs="54.924369" electricity_abs="0"/>
    </tripinfo>
    <tripinfo id="9" depart="9.00" departLane="B1B0_0" departPos="5.10" departSpeed="0.00" departDelay="0.00" arrival="111.00" arrivalLane="A1A2_0" arrivalPos="179.20" arrivalSpeed="11.10" duration="102.00" routeLength="852.11" waitingTime="14.00" waitingCount="1" stopTime="0.00" timeLoss="28.76" rerouteNo="1" devices="tripinfo_9 routing_9 emissions_9" vType="human_car" speedFactor="0.86" vaporized="">
        <emissions CO_abs="4796.994510" CO2_abs="236942.258118" HC_abs="27.344403" PMx_abs="4.013566" NOx_abs="95.903251" fuel_abs="101.852577" electricity_abs="0"/>
    </tripinfo>
    <tripinfo id="53" depart="56.00" departLane="D1C1_0" departPos="5.10" departSpeed="0.00" departDelay="3.00" arrival="111.00" arrivalLane="C1B1_1" arrivalPos="279.20" arrivalSpeed="11.55" duration="55.00" routeLength="581.44" waitingTime="0.00" waitingCount="0" stopTime="0.00" timeLoss="5.76" rerouteNo="0" devices="tripinfo_53 routing_53 emissions_53" vType="human_car" speedFactor="0.85" vaporized="">
        <emissions CO_abs="1735.009734" CO2_abs="124392.554032" HC_abs="10.765194" PMx_abs="1.845356" NOx_abs="48.443325" fuel_abs="53.471439" electricity_abs="0"/>
    </tripinfo>
    <tripinfo id="44" depart="44.00" departLane="C1C2_0" departPos="5.10" departSpeed="0.00" departDelay="0.00" arrival="116.00" arrivalLane="D1D0_1" arrivalPos="178.54" arrivalSpeed="14.57" duration="72.00" routeLength="858.33" waitingTime="0.00" waitingCount="0" stopTime="0.00" timeLoss="14.28" rerouteNo="1" devices="tripinfo_44 routing_44 emissions_44" vType="human_car" speedFactor="1.09" vaporized="">
        <emissions CO_abs="3359.278961" CO2_abs="231069.766188" HC_abs="20.701442" PMx_abs="4.218710" NOx_abs="94.722687" fuel_abs="99.326686" electricity_abs="0"/>
    </tripinfo>
    <tripinfo id="57" depart="57.00" departLane="C2C1_0" departPos="5.10" departSpeed="0.00" departDelay="0.00" arrival="119.00" arrivalLane="C1D1_1" arrivalPos="286.53" arrivalSpeed="12.74" duration="62.00" routeLength="479.99" waitingTime="14.00" waitingCount="1" stopTime="0.00" timeLoss="26.21" rerouteNo="0" devices="tripinfo_57 routing_57 emissions_57" vType="human_car" speedFactor="1.00" vaporized="">
        <emissions CO_abs="3374.606517" CO2_abs="152785.801611" HC_abs="18.948640" PMx_abs="2.800693" NOx_abs="63.043040" fuel_abs="65.676811" electricity_abs="0"/>
    </tripinfo>
    <tripinfo id="104" depart="104.00" departLane="C1C2_0" departPos="5.10" departSpeed="0.00" departDelay="0.00" arrival="122.00" arrivalLane="C1C2_1" arrivalPos="179.20" arrivalSpeed="9.49" duration="18.00" routeLength="174.10" waitingTime="0.00" waitingCount="0" stopTime="0.00" timeLoss="6.11" rerouteNo="1" devices="tripinfo_104 routing_104 emissions_104" vType="human_car" speedFactor="1.10" vaporized="">
        <emissions CO_abs="1418.523447" CO2_abs="76997.992850" HC_abs="8.289159" PMx_abs="1.507394" NOx_abs="32.563676" fuel_abs="33.098106" electricity_abs="0"/>
    </tripinfo>
    <tripinfo id="28" depart="28.00" departLane="D1D2_0" departPos="5.10" departSpeed="0.00" departDelay="0.00" arrival="127.00" arrivalLane="C1D1_1" arrivalPos="286.53" arrivalSpeed="15.67" duration="99.00" routeLength="985.46" waitingTime="20.00" waitingCount="1" stopTime="0.00" timeLoss="34.38" rerouteNo="1" devices="tripinfo_28 routing_28 emissions_28" vType="human_car" speedFactor="1.13" vaporized="">
        <emissions CO_abs="6253.822643" CO2_abs="318232.690494" HC_abs="35.804243" PMx_abs="6.026213" NOx_abs="131.587317" fuel_abs="136.795246" electricity_abs="0"/>
    </tripinfo>
    <tripinfo id="2" depart="2.00" departLane="A0A1_0" departPos="5.10" departSpeed="0.00" departDelay="0.00" arrival="132.00" arrivalLane="C2C1_0" arrivalPos="179.20" arrivalSpeed="12.91" duration="130.00" routeLength="1154.56" waitingTime="27.00" waitingCount="2" stopTime="0.00" timeLoss="46.02" rerouteNo="1" devices="tripinfo_2 routing_2 emissions_2" vType="human_car" speedFactor="1.01" vaporized="">
        <emissions CO_abs="6302.007495" CO2_abs="309376.274322" HC_abs="35.896765" PMx_abs="5.593863" NOx_abs="126.734476" fuel_abs="132.988802" electricity_abs="0"/>
    </tripinfo>
    <tripinfo id="78" depart="79.00" departLane="B1C1_0" departPos="5.10" departSpeed="0.00" departDelay="1.00" arrival="140.00" arrivalLane="B1C1_0" arrivalPos="279.20" arrivalSpeed="7.67" duration="61.00" routeLength="274.10" waitingTime="31.00" waitingCount="1" stopTime="0.00" timeLoss="40.85" rerouteNo="1" devices="tripinfo_78 routing_78 emissions_78" vType="human_car" speedFactor="0.98" vaporized="">
        <emissions CO_abs="5972.599723" CO2_abs="158612.919732" HC_abs="30.891944" PMx_abs="3.358163" NOx_abs="68.591050" fuel_abs="68.183062" electricity_abs="0"/>
    </tripinfo>
    <tripinfo id="17" depart="17.00" departLane="C2B2_0" departPos="5.10" departSpeed="0.00" departDelay="0.00" arrival="144.00" arrivalLane="B1C1_0" arrivalPos="279.20" arrivalSpeed="10.23" duration="127.00" routeLength="775.07" waitingTime="49.00" waitingCount="2" stopTime="0.00" timeLoss="66.31" rerouteNo="1" devices="tripinfo_17 routing_17 emissions_17" vType="human_car" speedFactor="0.94" vaporized="">
        <emissions CO_abs="10010.047521" CO2_abs="313710.524425" HC_abs="52.929685" PMx_abs="6.255013" NOx_abs="133.071255" fuel_abs="134.854062" electricity_abs="0"/>
    </tripinfo>
    <tripinfo id="43" depart="43.00" departLane="C1D1_0" departPos="5.10" departSpeed="0.00" departDelay="0.00" arrival="144.00" arrivalLane="C1C2_0" arrivalPos="179.20" arrivalSpeed="13.29" duration="101.00" routeLength="1152.60" waitingTime="0.00" waitingCount="0" stopTime="0.00" timeLoss="12.16" rerouteNo="1" devices="tripinfo_43 routing_43 emissions_43" vType="human_car" speedFactor="0.96" vaporized="">
        <emissions CO_abs="3174.753867" CO2_abs="246951.150930" HC_abs="20.218307" PMx_abs="4.016147" NOx_abs="98.090229" fuel_abs="106.153798" electricity_abs="0"/>
    </tripinfo>
    <tripinfo id="22" depart="22.00" departLane="C1C0_0" departPos="5.10" departSpeed="0.00" departDelay="0.00" arrival="147.00" arrivalLane="D1C1_1" arrivalPos="286.53" arrivalSpeed="13.17" duration="125.00" routeLength="983.55" waitingTime="22.00" waitingCount="3" stopTime="0.00" timeLoss="49.71" rerouteNo="1" devices="tripinfo_22 routing_22 emissions_22" vType="human_car" speedFactor="0.98" vaporized="">
        <emissions CO_abs="5690.229825" CO2_abs="282221.638182" HC_abs="32.529769" PMx_abs="5.124484" NOx_abs="116.475380" fuel_abs="121.315934" electricity_abs="0"/>
    </tripinfo>
    <tripinfo id="46" depart="46.00" departLane="right0D0_0" departPos="5.10" departSpeed="0.00" departDelay="0.00" arrival="148.00" arrivalLane="D2C2_0" arrivalPos="289.57" arrivalSpeed="13.46" duration="102.00" routeLength="787.43" waitingTime="30.00" waitingCount="2" stopTime="0.00" timeLoss="45.36" rerouteNo="1" devices="tripinfo_46 routing_46 emissions_46" vType="human_car" speedFactor="1.04" vaporized="">
        <emissions CO_abs="6367.315418" CO2_abs="254670.126300" HC_abs="34.927045" PMx_abs="4.825664" NOx_abs="105.828313" fuel_abs="109.473425" electricity_abs="0"/>
    </tripinfo>
    <tripinfo id="32" depart="34.00" departLane="A1B1_0" departPos="5.10" departSpeed="0.00" departDelay="2.00" arrival="153.00" arrivalLane="A2A1_0" arrivalPos="179.20" arrivalSpeed="7.11" duration="119.00" routeLength="930.09" waitingTime="38.00" waitingCount="1" stopTime="0.00" timeLoss="59.31" rerouteNo="1" devices="tripinfo_32 routing_32 emissions_32" vType="human_car" speedFactor="1.15" vaporized="">
        <emissions CO_abs="9616.593216" CO2_abs="371401.189949" HC_abs="52.406648" PMx_abs="7.373483" NOx_abs="156.276900" fuel_abs="159.651640" electricity_abs="0"/>
    </tripinfo>
    <tripinfo id="82" depart="82.00" departLane="B0B1_0" departPos="5.10" departSpeed="0.00" departDelay="0.00" arrival="155.00" arrivalLane="A1A0_0" arrivalPos="183.20" arrivalSpeed="5.74" duration="73.00" routeLength="674.18" waitingTime="8.00" waitingCount="1" stopTime="0.00" timeLoss="23.65" rerouteNo="1" devices="tripinfo_82 routing_82 emissions_82" vType="human_car" speedFactor="1.01" vaporized="">
        <emissions CO_abs="3142.103266" CO2_abs="189028.678540" HC_abs="18.758453" PMx_abs="3.395341" NOx_abs="77.509185" fuel_abs="81.255473" electricity_abs="0"/>
    </tripinfo>
    <tripinfo id="77" depart="77.00" departLane="B0B1_0" departPos="5.10" departSpeed="0.00" departDelay="0.00" arrival="156.00" arrivalLane="B2B1_1" arrivalPos="179.20" arrivalSpeed="13.17" duration="79.00" routeLength="557.98" waitingTime="24.00" waitingCount="1" stopTime="0.00" timeLoss="35.68" rerouteNo="1" devices="tripinfo_77 routing_77 emissions_77" vType="human_car" speedFactor="0.96" vaporized="">
        <emissions CO_abs="5273.744079" CO2_abs="189692.360637" HC_abs="28.470581" PMx_abs="3.710304" NOx_abs="79.972053" fuel_abs="81.542090" electricity_abs="0"/>
    </tripinfo>
    <tripinfo id="13" depart="13.00" departLane="D2D1_0" departPos="5.10" departSpeed="0.00" departDelay="0.00" arrival="157.00" arrivalLane="B2C2_1" arrivalPos="279.20" arrivalSpeed="15.52" duration="144.00" routeLength="1250.62" waitingTime="42.00" waitingCount="1" stopTime="0.00" timeLoss="61.94" rerouteNo="1" devices="tripinfo_13 routing_13 emissions_13" vType="human_car" speedFactor="1.12" vaporized="">
        <emissions CO_abs="9862.465790" CO2_abs="379560.614599" HC_abs="53.747748" PMx_abs="7.473904" NOx_abs="159.220417" fuel_abs="163.159216" electricity_abs="0"/>
    </tripinfo>
    <tripinfo id="63" depart="63.00" departLane="A1A0_0" departPos="5.10" departSpeed="0.00" departDelay="0.00" arrival="157.00" arrivalLane="A2A1_0" arrivalPos="179.20" arrivalSpeed="7.13" duration="94.00" routeLength="749.85" waitingTime="19.00" waitingCount="2" stopTime="0.00" timeLoss="41.90" rerouteNo="1" devices="tripinfo_63 routing_63 emissions_63" vType="human_car" speedFactor="1.08" vaporized="">
        <emissions CO_abs="5252.637671" CO2_abs="247361.444996" HC_abs="29.733700" PMx_abs="4.735104" NOx_abs="103.352420" fuel_abs="106.330795" electricity_abs="0"/>
    </tripinfo>
    <tripinfo id="4" depart="4.00" departLane="B0A0_0" departPos="5.10" departSpeed="0.00" departDelay="0.00" arrival="159.00" arrivalLane="C1C0_0" arrivalPos="179.19" arrivalSpeed="13.22" duration="155.00" routeLength="1240.34" waitingTime="38.00" waitingCount="2" stopTime="0.00" timeLoss="65.77" rerouteNo="1" devices="tripinfo_4 routing_4 emissions_4" vType="human_car" speedFactor="1.03" vaporized="">
        <emissions CO_abs="10040.852132" CO2_abs="411644.763815" HC_abs="55.364085" PMx_abs="7.831301" NOx_abs="171.602316" fuel_abs="176.950823" electricity_abs="0"/>
    </tripinfo>
    <tripinfo id="83" depart="83.00" departLane="A0A1_0" departPos="5.10" departSpeed="0.00" departDelay="0.00" arrival="159.00" arrivalLane="B1A1_1" arrivalPos="279.20" arrivalSpeed="14.55" duration="76.00" routeLength="750.21" waitingTime="9.00" waitingCount="1" stopTime="0.00" timeLoss="23.96" rerouteNo="1" devices="tripinfo_83 routing_83 emissions_83" vType="human_car" speedFactor="1.09" vaporized="">
        <emissions CO_abs="3774.841068" CO2_abs="227501.676112" HC_abs="22.479347" PMx_abs="4.091432" NOx_abs="92.772052" fuel_abs="97.793425" electricity_abs="0"/>
    </tripinfo>
    <tripinfo id="19" depart="19.00" departLane="B2C2_0" departPos="5.10" departSpeed="0.00" departDelay="0.00" arrival="160.00" arrivalLane="B1C1_0" arrivalPos="279.20" arrivalSpeed="15.43" duration="141.00" routeLength="1034.44" waitingTime="46.00" waitingCount="2" stopTime="0.00" timeLoss="74.18" rerouteNo="1" devices="tripinfo_19 routing_19 emissions_19" vType="human_car" speedFactor="1.16" vaporized="">
        <emissions CO_abs="10882.437606" CO2_abs="407459.354629" HC_abs="59.145287" PMx_abs="8.261834" NOx_abs="172.902886" fuel_abs="175.151720" electricity_abs="0"/>
    </tripinfo>
    <tripinfo id="71" depart="73.00" departLane="D1C1_0" departPos="5.10" departSpeed="0.00" departDelay="2.00" arrival="160.00" arrivalLane="C1B1_1" arrivalPos="279.20" arrivalSpeed="14.32" duration="87.00" routeLength="581.44" waitingTime="36.00" waitingCount="1" stopTime="0.00" timeLoss="45.93" rerouteNo="0" devices="tripinfo_71 routing_71 emissions_71" vType="human_car" speedFactor="1.04" vaporized="">
        <emissions CO_abs="7578.701659" CO2_abs="235289.591492" HC_abs="40.033315" PMx_abs="4.753944" NOx_abs="99.856667" fuel_abs="101.143427" electricity_abs="0"/>
    </tripinfo>
    <tripinfo id="49" depart="49.00" departLane="D2C2_0" departPos="5.10" departSpeed="0.00" departDelay="0.00" arrival="161.00" arrivalLane="D1D2_1" arrivalPos="183.69" arrivalSpeed="13.80" duration="112.00" routeLength="992.00" waitingTime="17.00" waitingCount="1" stopTime="0.00" timeLoss="37.85" rerouteNo="1" devices="tripinfo_49 routing_49 emissions_49" vType="human_car" speedFactor="1.00" vaporized="">
        <emissions CO_abs="6265.013007" CO2_abs="284907.920883" HC_abs="35.219182" PMx_abs="5.321940" NOx_abs="118.351660" fuel_abs="122.470898" electricity_abs="0"/>
    </tripinfo>
    <tripinfo id="18" depart="18.00" departLane="C1C0_0" departPos="5.10" departSpeed="0.00" departDelay="0.00" arrival="162.00" arrivalLane="D2C2_0" arrivalPos="289.57" arrivalSpeed="12.61" duration="144.00" routeLength="1189.77" waitingTime="27.00" waitingCount="3" stopTime="0.00" timeLoss="49.51" rerouteNo="1" devices="tripinfo_18 routing_18 emissions_18" vType="human_car" speedFactor="0.94" vaporized="">
        <emissions CO_abs="6615.504754" CO2_abs="336497.484353" HC_abs="37.975115" PMx_abs="5.829697" NOx_abs="136.533772" fuel_abs="144.647315" electricity_abs="0"/>
    </tripinfo>
    <tripinfo id="54" depart="54.00" departLane="A1B1_0" departPos="5.10" departSpeed="0.00" departDelay="0.00" arrival="162.00" arrivalLane="B2A2_0" arrivalPos="279.20" arrivalSpeed="16.08" duration="108.00" routeLength="770.18" waitingTime="41.00" waitingCount="1" stopTime="0.00" timeLoss="59.53" rerouteNo="1" devices="tripinfo_54 routing_54 emissions_54" vType="human_car" speedFactor="1.17" vaporized="">
        <emissions CO_abs="10267.980642" CO2_abs="354463.434381" HC_abs="55.002351" PMx_abs="7.314229" NOx_abs="151.439906" fuel_abs="152.371184" electricity_abs="0"/>
    </tripinfo>
    <tripinfo id="59" depart="59.00" departLane="left2A2_0" departPos="5.10" departSpeed="0.00" departDelay="0.00" arrival="162.00" arrivalLane="B1C1_0" arrivalPos="279.20" arrivalSpeed="12.23" duration="103.00" routeLength="881.69" waitingTime="12.00" waitingCount="2" stopTime="0.00" timeLoss="31.20" rerouteNo="1" devices="tripinfo_59 routing_59 emissions_59" vType="human_car" speedFactor="0.90" vaporized="">
        <emissions CO_abs="4612.281353" CO2_abs="243804.088455" HC_abs="26.723537" PMx_abs="4.414675" NOx_abs="100.783177" fuel_abs="104.801481" electricity_abs="0"/>
    </tripinfo>
    <tripinfo id="70" depart="70.00" departLane="D1C1_0" departPos="5.10" departSpeed="0.00" departDelay="0.00" arrival="162.00" arrivalLane="C1B1_0" arrivalPos="279.20" arrivalSpeed="12.03" duration="92.00" routeLength="581.44" waitingTime="37.00" waitingCount="1" stopTime="0.00" timeLoss="45.45" rerouteNo="0" devices="tripinfo_70 routing_70 emissions_70" vType="human_car" speedFactor="0.91" vaporized="">
        <emissions CO_abs="7415.443957" CO2_abs="222801.478116" HC_abs="38.985663" PMx_abs="4.475363" NOx_abs="94.709666" fuel_abs="95.775401" electricity_abs="0"/>
    </tripinfo>
    <tripinfo id="110" depart="110.00" departLane="A1A2_0" departPos="5.10" departSpeed="0.00" departDelay="0.00" arrival="162.00" arrivalLane="A2B2_0" arrivalPos="279.20" arrivalSpeed="12.40" duration="52.00" routeLength="462.33" waitingTime="5.00" waitingCount="1" stopTime="0.00" timeLoss="14.02" rerouteNo="0" devices="tripinfo_110 routing_110 emissions_110" vType="human_car" speedFactor="0.89" vaporized="">
        <emissions CO_abs="2076.820331" CO2_abs="129306.045733" HC_abs="12.462003" PMx_abs="2.114466" NOx_abs="51.775811" fuel_abs="55.583473" electricity_abs="0"/>
    </tripinfo>
    <tripinfo id="99" depart="99.00" departLane="A0A1_0" departPos="5.10" departSpeed="0.00" departDelay="0.00" arrival="163.00" arrivalLane="B1B2_0" arrivalPos="179.20" arrivalSpeed="14.70" duration="64.00" routeLength="666.34" waitingTime="5.00" waitingCount="1" stopTime="0.00" timeLoss="18.39" rerouteNo="1" devices="tripinfo_99 routing_99 emissions_99" vType="human_car" speedFactor="1.09" vaporized="">
        <emissions CO_abs="2980.869187" CO2_abs="197685.542278" HC_abs="18.169115" PMx_abs="3.641796" NOx_abs="81.252033" fuel_abs="84.976319" electricity_abs="0"/>
    </tripinfo>
    <tripinfo id="100" depart="101.00" departLane="D1C1_0" departPos="5.10" departSpeed="0.00" departDelay="1.00" arrival="163.00" arrivalLane="C1B1_0" arrivalPos="279.20" arrivalSpeed="14.58" duration="62.00" routeLength="581.44" waitingTime="11.00" waitingCount="1" stopTime="0.00" timeLoss="22.20" rerouteNo="0" devices="tripinfo_100 routing_100 emissions_100" vType="human_car" speedFactor="1.06" vaporized="">
        <emissions CO_abs="3198.488165" CO2_abs="163487.576795" HC_abs="18.408981" PMx_abs="3.078877" NOx_abs="67.846222" fuel_abs="70.276631" electricity_abs="0"/>
    </tripinfo>
    <tripinfo id="103" depart="107.00" departLane="D1C1_0" departPos="5.10" departSpeed="0.00" departDelay="4.00" arrival="165.00" arrivalLane="C1B1_0" arrivalPos="279.20" arrivalSpeed="15.58" duration="58.00" routeLength="581.44" waitingTime="6.00" waitingCount="1" stopTime="0.00" timeLoss="20.10" rerouteNo="0" devices="tripinfo_103 routing_103 emissions_103" vType="human_car" speedFactor="1.12" vaporized="">
        <emissions CO_abs="2847.289107" CO2_abs="170309.915200" HC_abs="17.015184" PMx_abs="3.259485" NOx_abs="71.011817" fuel_abs="73.208785" electricity_abs="0"/>
    </tripinfo>