<?xml version="1.0" encoding="UTF-8"?>

<!-- generated on 2022-07-28 16:07:18 by Eclipse SUMO sumo Version 1.10.0
<configuration xmlns:xsi="http://www.w3.org/2001/XMLSchema-instance" xsi:noNamespaceSchemaLocation="http://sumo.dlr.de/xsd/sumoConfiguration.xsd">

    <input>
        <net-file value="/Users/wangzheng/Desktop/01/sumo/IEEE%20ISC2%202022/sumo_scenario/scenario.net.xml"/>
        <route-files value="/Users/wangzheng/Desktop/01/sumo/IEEE%20ISC2%202022/sumo_scenario/scenario.trips.xml"/>
        <additional-files value="/Users/wangzheng/Desktop/01/sumo/IEEE%20ISC2%202022/sumo_scenario/exercise.add.xml"/>
    </input>

    <output>
        <emission-output value="/Users/wangzheng/Desktop/01/sumo/IEEE%20ISC2%202022/sumo_scenario/emission.xml"/>
        <tripinfo-output value="/Users/wangzheng/Desktop/01/sumo/IEEE%20ISC2%202022/training_tripinfo/DQN_training/tripinfo1.xml"/>
        <tripinfo-output.write-unfinished value="true"/>
    </output>

    <time>
        <begin value="0"/>
    </time>

    <processing>
        <ignore-route-errors value="true"/>
    </processing>

    <routing>
        <routing-algorithm value="dijkstra"/>
    </routing>

    <report>
        <verbose value="true"/>
        <no-step-log value="true"/>
    </report>

    <traci_server>
        <remote-port value="62180"/>
    </traci_server>

</configuration>
-->

<tripinfos xmlns:xsi="http://www.w3.org/2001/XMLSchema-instance" xsi:noNamespaceSchemaLocation="http://sumo.dlr.de/xsd/tripinfo_file.xsd">
    <tripinfo id="0" depart="0.00" departLane="B0B1_0" departPos="5.10" departSpeed="0.00" departDelay="0.00" arrival="39.00" arrivalLane="B1C1_0" arrivalPos="279.20" arrivalSpeed="14.37" duration="39.00" routeLength="462.33" waitingTime="0.00" waitingCount="0" stopTime="0.00" timeLoss="6.53" rerouteNo="0" devices="tripinfo_0 routing_0 emissions_0" vType="human_car" speedFactor="1.06" vaporized="">
        <emissions CO_abs="1815.323894" CO2_abs="122197.125362" HC_abs="11.152379" PMx_abs="2.194094" NOx_abs="49.928899" fuel_abs="52.527236" electricity_abs="0"/>
    </tripinfo>
    <tripinfo id="20" depart="20.00" departLane="A2B2_0" departPos="5.10" departSpeed="0.00" departDelay="0.00" arrival="61.00" arrivalLane="B2B1_0" arrivalPos="179.20" arrivalSpeed="13.80" duration="41.00" routeLength="462.33" waitingTime="0.00" waitingCount="0" stopTime="0.00" timeLoss="7.06" rerouteNo="0" devices="tripinfo_20 routing_20 emissions_20" vType="human_car" speedFactor="1.02" vaporized="">
        <emissions CO_abs="1984.172023" CO2_abs="131591.842604" HC_abs="12.134786" PMx_abs="2.358316" NOx_abs="53.850635" fuel_abs="56.565636" electricity_abs="0"/>
    </tripinfo>
    <tripinfo id="10" depart="10.00" departLane="B1A1_0" departPos="5.10" departSpeed="0.00" departDelay="0.00" arrival="63.00" arrivalLane="A1A0_0" arrivalPos="183.20" arrivalSpeed="8.91" duration="53.00" routeLength="476.65" waitingTime="9.00" waitingCount="1" stopTime="0.00" timeLoss="20.56" rerouteNo="0" devices="tripinfo_10 routing_10 emissions_10" vType="human_car" speedFactor="1.09" vaporized="">
        <emissions CO_abs="2757.214942" CO2_abs="156981.354157" HC_abs="16.239272" PMx_abs="2.958395" NOx_abs="65.175334" fuel_abs="67.479595" electricity_abs="0"/>
    </tripinfo>
    <tripinfo id="12" depart="12.00" departLane="D1C1_0" departPos="5.10" departSpeed="0.00" departDelay="0.00" arrival="70.00" arrivalLane="C1B1_1" arrivalPos="279.20" arrivalSpeed="13.39" duration="58.00" routeLength="581.44" waitingTime="6.00" waitingCount="1" stopTime="0.00" timeLoss="17.35" rerouteNo="0" devices="tripinfo_12 routing_12 emissions_12" vType="human_car" speedFactor="1.05" vaporized="">
        <emissions CO_abs="2321.679437" CO2_abs="158496.230601" HC_abs="14.245237" PMx_abs="2.724148" NOx_abs="63.801032" fuel_abs="68.130811" electricity_abs="0"/>
    </tripinfo>
    <tripinfo id="1" depart="1.00" departLane="D1C1_0" departPos="5.10" departSpeed="0.00" departDelay="0.00" arrival="72.00" arrivalLane="C1B1_0" arrivalPos="279.20" arrivalSpeed="11.98" duration="71.00" routeLength="581.44" waitingTime="16.00" waitingCount="1" stopTime="0.00" timeLoss="25.62" rerouteNo="0" devices="tripinfo_1 routing_1 emissions_1" vType="human_car" speedFactor="0.94" vaporized="">
        <emissions CO_abs="3925.768936" CO2_abs="164121.683426" HC_abs="21.714744" PMx_abs="3.011616" NOx_abs="67.794204" fuel_abs="70.549923" electricity_abs="0"/>
    </tripinfo>
    <tripinfo id="11" depart="11.00" departLane="B1B2_0" departPos="5.10" departSpeed="0.00" departDelay="0.00" arrival="72.00" arrivalLane="B2A2_0" arrivalPos="279.20" arrivalSpeed="6.47" duration="61.00" routeLength="472.65" waitingTime="15.00" waitingCount="1" stopTime="0.00" timeLoss="27.01" rerouteNo="0" devices="tripinfo_11 routing_11 emissions_11" vType="human_car" speedFactor="1.03" vaporized="">
        <emissions CO_abs="4184.265273" CO2_abs="165911.662805" HC_abs="22.944803" PMx_abs="3.228691" NOx_abs="69.847816" fuel_abs="71.319257" electricity_abs="0"/>
    </tripinfo>
    <tripinfo id="21" depart="21.00" departLane="D1C1_0" departPos="5.10" departSpeed="0.00" departDelay="0.00" arrival="72.00" arrivalLane="C1B1_1" arrivalPos="279.20" arrivalSpeed="13.04" duration="51.00" routeLength="581.44" waitingTime="0.00" waitingCount="0" stopTime="0.00" timeLoss="8.92" rerouteNo="0" devices="tripinfo_21 routing_21 emissions_21" vType="human_car" speedFactor="1.01" vaporized="">
        <emissions CO_abs="2072.072517" CO2_abs="134427.335877" HC_abs="12.562418" PMx_abs="2.333434" NOx_abs="54.470254" fuel_abs="57.784647" electricity_abs="0"/>
    </tripinfo>
    <tripinfo id="31" depart="31.00" departLane="A1B1_0" departPos="5.10" departSpeed="0.00" departDelay="0.00" arrival="72.00" arrivalLane="B1B2_1" arrivalPos="179.20" arrivalSpeed="11.88" duration="41.00" routeLength="474.11" waitingTime="0.00" waitingCount="0" stopTime="0.00" timeLoss="10.71" rerouteNo="0" devices="tripinfo_31 routing_31 emissions_31" vType="human_car" speedFactor="1.18" vaporized="">
        <emissions CO_abs="1999.820158" CO2_abs="131439.203114" HC_abs="12.159966" PMx_abs="2.394105" NOx_abs="54.010489" fuel_abs="56.499973" electricity_abs="0"/>
    </tripinfo>
    <tripinfo id="35" depart="38.00" departLane="B1C1_0" departPos="5.10" departSpeed="0.00" departDelay="3.00" arrival="75.00" arrivalLane="C1C0_0" arrivalPos="179.19" arrivalSpeed="15.08" duration="37.00" routeLength="462.33" waitingTime="0.00" waitingCount="0" stopTime="0.00" timeLoss="7.46" rerouteNo="0" devices="tripinfo_35 routing_35 emissions_35" vType="human_car" speedFactor="1.17" vaporized="">
        <emissions CO_abs="1986.132313" CO2_abs="136425.650767" HC_abs="12.230573" PMx_abs="2.505569" NOx_abs="55.843144" fuel_abs="58.643358" electricity_abs="0"/>
    </tripinfo>
    <tripinfo id="30" depart="32.00" departLane="D1C1_0" departPos="5.10" departSpeed="0.00" departDelay="2.00" arrival="83.00" arrivalLane="C1B1_0" arrivalPos="279.20" arrivalSpeed="11.96" duration="51.00" routeLength="581.44" waitingTime="0.00" waitingCount="0" stopTime="0.00" timeLoss="5.53" rerouteNo="0" devices="tripinfo_30 routing_30 emissions_30" vType="human_car" speedFactor="0.93" vaporized="">
        <emissions CO_abs="1570.488502" CO2_abs="119790.419182" HC_abs="9.932252" PMx_abs="1.857714" NOx_abs="46.935813" fuel_abs="51.492978" electricity_abs="0"/>
    </tripinfo>
    <tripinfo id="37" depart="37.00" departLane="D1C1_0" departPos="5.10" departSpeed="0.00" departDelay="0.00" arrival="83.00" arrivalLane="C1B1_1" arrivalPos="279.20" arrivalSpeed="13.94" duration="46.00" routeLength="581.44" waitingTime="0.00" waitingCount="0" stopTime="0.00" timeLoss="4.80" rerouteNo="0" devices="tripinfo_37 routing_37 emissions_37" vType="human_car" speedFactor="1.02" vaporized="">
        <emissions CO_abs="1487.384303" CO2_abs="125284.632030" HC_abs="9.676721" PMx_abs="1.993252" NOx_abs="49.075044" fuel_abs="53.854536" electricity_abs="0"/>
    </tripinfo>
    <tripinfo id="27" depart="28.00" departLane="B1C1_0" departPos="5.10" departSpeed="0.00" departDelay="1.00" arrival="87.00" arrivalLane="C1B1_0" arrivalPos="279.20" arrivalSpeed="12.09" duration="59.00" routeLength="557.98" waitingTime="4.00" waitingCount="1" stopTime="0.00" timeLoss="14.49" rerouteNo="0" devices="tripinfo_27 routing_27 emissions_27" vType="human_car" speedFactor="0.95" vaporized="">
        <emissions CO_abs="2331.575860" CO2_abs="137195.198708" HC_abs="13.823412" PMx_abs="2.352938" NOx_abs="55.587346" fuel_abs="58.974650" electricity_abs="0"/>
    </tripinfo>
    <tripinfo id="8" depart="10.00" departLane="right0D0_0" departPos="5.10" departSpeed="0.00" departDelay="2.00" arrival="90.00" arrivalLane="C1B1_0" arrivalPos="279.20" arrivalSpeed="9.80" duration="80.00" routeLength="881.22" waitingTime="0.00" waitingCount="0" stopTime="0.00" timeLoss="10.20" rerouteNo="1" devices="tripinfo_8 routing_8 emissions_8" vType="human_car" speedFactor="0.94" vaporized="">
        <emissions CO_abs="2911.172959" CO2_abs="209718.479820" HC_abs="18.155318" PMx_abs="3.461591" NOx_abs="83.849134" fuel_abs="90.149141" electricity_abs="0"/>
    </tripinfo>
    <tripinfo id="26" depart="26.00" departLane="C1B1_0" departPos="5.10" departSpeed="0.00" departDelay="0.00" arrival="95.00" arrivalLane="B2C2_0" arrivalPos="279.20" arrivalSpeed="11.58" duration="69.00" routeLength="750.56" waitingTime="0.00" waitingCount="0" stopTime="0.00" timeLoss="8.83" rerouteNo="1" devices="tripinfo_26 routing_26 emissions_26" vType="human_car" speedFactor="0.92" vaporized="">
        <emissions CO_abs="2314.806612" CO2_abs="171565.026414" HC_abs="14.536303" PMx_abs="2.760726" NOx_abs="68.166318" fuel_abs="73.748627" electricity_abs="0"/>
    </tripinfo>
    <tripinfo id="50" depart="50.00" departLane="D1C1_0" departPos="5.10" departSpeed="0.00" departDelay="0.00" arrival="101.00" arrivalLane="C1B1_1" arrivalPos="279.20" arrivalSpeed="11.97" duration="51.00" routeLength="581.44" waitingTime="0.00" waitingCount="0" stopTime="0.00" timeLoss="4.42" rerouteNo="0" devices="tripinfo_50 routing_50 emissions_50" vType="human_car" speedFactor="0.90" vaporized="">
        <emissions CO_abs="1466.363624" CO2_abs="110625.396328" HC_abs="9.248201" PMx_abs="1.743473" NOx_abs="43.659770" fuel_abs="47.553269" electricity_abs="0"/>
    </tripinfo>
    <tripinfo id="64" depart="64.00" departLane=":B1_16_0" departPos="5.10" departSpeed="0.00" departDelay="0.00" arrival="103.00" arrivalLane="B2C2_0" arrivalPos="279.20" arrivalSpeed="11.28" duration="39.00" routeLength="483.13" waitingTime="0.00" waitingCount="0" stopTime="0.00" timeLoss="6.89" rerouteNo="1" devices="tripinfo_64 routing_64 emissions_64" vType="human_car" speedFactor="1.12" vaporized="">
        <emissions CO_abs="1851.249224" CO2_abs="121484.038319" HC_abs="11.268756" PMx_abs="2.261050" NOx_abs="50.132986" fuel_abs="52.220622" electricity_abs="0"/>
    </tripinfo>
    <tripinfo id="88" depart="88.00" departLane="C1C2_0" departPos="5.10" departSpeed="0.00" departDelay="0.00" arrival="105.00" arrivalLane="C1C2_1" arrivalPos="179.20" arrivalSpeed="10.76" duration="17.00" routeLength="174.10" waitingTime="0.00" waitingCount="0" stopTime="0.00" timeLoss="5.70" rerouteNo="1" devices="tripinfo_88 routing_88 emissions_88" vType="human_car" speedFactor="1.15" vaporized="">
        <emissions CO_abs="1368.201329" CO2_abs="79627.459049" HC_abs="8.119851" PMx_abs="1.515913" NOx_abs="33.225416" fuel_abs="34.228399" electricity_abs="0"/>
    </tripinfo>
    <tripinfo id="58" depart="59.00" departLane="D1C1_0" departPos="5.10" departSpeed="0.00" departDelay="1.00" arrival="107.00" arrivalLane="C1B1_1" arrivalPos="279.20" arrivalSpeed="13.62" duration="48.00" routeLength="581.44" waitingTime="0.00" waitingCount="0" stopTime="0.00" timeLoss="5.78" rerouteNo="0" devices="tripinfo_58 routing_58 emissions_58" vType="human_car" speedFactor="1.00" vaporized="">
        <emissions CO_abs="1598.502129" CO2_abs="123650.826252" HC_abs="10.158999" PMx_abs="1.986605" NOx_abs="48.750500" fuel_abs="53.152298" electricity_abs="0"/>
    </tripinfo>
    <tripinfo id="9" depart="9.00" departLane="B1B0_0" departPos="5.10" departSpeed="0.00" departDelay="0.00" arrival="111.00" arrivalLane="A1A2_0" arrivalPos="179.20" arrivalSpeed="11.48" duration="102.00" routeLength="852.11" waitingTime="14.00" waitingCount="1" stopTime="0.00" timeLoss="28.75" rerouteNo="1" devices="tripinfo_9 routing_9 emissions_9" vType="human_car" speedFactor="0.86" vaporized="">
        <emissions CO_abs="4864.533042" CO2_abs="243830.733075" HC_abs="27.809059" PMx_abs="4.101729" NOx_abs="98.474911" fuel_abs="104.813659" electricity_abs="0"/>
    </tripinfo>
    <tripinfo id="53" depart="56.00" departLane="D1C1_0" departPos="5.10" departSpeed="0.00" departDelay="3.00" arrival="111.00" arrivalLane="C1B1_1" arrivalPos="279.20" arrivalSpeed="10.82" duration="55.00" routeLength="581.44" waitingTime="0.00" waitingCount="0" stopTime="0.00" timeLoss="5.78" rerouteNo="0" devices="tripinfo_53 routing_53 emissions_53" vType="human_car" speedFactor="0.85" vaporized="">
        <emissions CO_abs="1707.478449" CO2_abs="120187.912519" HC_abs="10.549564" PMx_abs="1.823665" NOx_abs="47.090510" fuel_abs="51.663992" electricity_abs="0"/>
    </tripinfo>
    <tripinfo id="44" depart="44.00" departLane="C1C2_0" departPos="5.10" departSpeed="0.00" departDelay="0.00" arrival="117.00" arrivalLane="D1D0_1" arrivalPos="178.54" arrivalSpeed="14.28" duration="73.00" routeLength="858.33" waitingTime="0.00" waitingCount="0" stopTime="0.00" timeLoss="14.51" rerouteNo="1" devices="tripinfo_44 routing_44 emissions_44" vType="human_car" speedFactor="1.09" vaporized="">
        <emissions CO_abs="3316.157038" CO2_abs="233557.917015" HC_abs="20.551396" PMx_abs="4.184432" NOx_abs="95.207834" fuel_abs="100.396289" electricity_abs="0"/>
    </tripinfo>
    <tripinfo id="104" depart="104.00" departLane="C1C2_0" departPos="5.10" departSpeed="0.00" departDelay="0.00" arrival="121.00" arrivalLane="C1C2_1" arrivalPos="179.20" arrivalSpeed="12.02" duration="17.00" routeLength="174.10" waitingTime="0.00" waitingCount="0" stopTime="0.00" timeLoss="5.03" rerouteNo="1" devices="tripinfo_104 routing_104 emissions_104" vType="human_car" speedFactor="1.10" vaporized="">
        <emissions CO_abs="1345.130125" CO2_abs="77724.286032" HC_abs="7.972249" PMx_abs="1.502750" NOx_abs="32.682090" fuel_abs="33.410269" electricity_abs="0"/>
    </tripinfo>
    <tripinfo id="2" depart="2.00" departLane="A0A1_0" departPos="5.10" departSpeed="0.00" departDelay="0.00" arrival="131.00" arrivalLane="C2C1_0" arrivalPos="179.20" arrivalSpeed="13.83" duration="129.00" routeLength="1154.56" waitingTime="27.00" waitingCount="2" stopTime="0.00" timeLoss="45.76" rerouteNo="1" devices="tripinfo_2 routing_2 emissions_2" vType="human_car" speedFactor="1.01" vaporized="">
        <emissions CO_abs="6204.563820" CO2_abs="306248.040281" HC_abs="35.399807" PMx_abs="5.540255" NOx_abs="125.431252" fuel_abs="131.644070" electricity_abs="0"/>
    </tripinfo>
    <tripinfo id="57" depart="57.00" departLane="C2C1_0" departPos="5.10" departSpeed="0.00" departDelay="0.00" arrival="139.00" arrivalLane="C1D1_1" arrivalPos="286.53" arrivalSpeed="7.18" duration="82.00" routeLength="479.99" waitingTime="29.00" waitingCount="2" stopTime="0.00" timeLoss="46.24" rerouteNo="0" devices="tripinfo_57 routing_57 emissions_57" vType="human_car" speedFactor="1.00" vaporized="">
        <emissions CO_abs="5630.981071" CO2_abs="196817.320229" HC_abs="30.265893" PMx_abs="3.886280" NOx_abs="83.275606" fuel_abs="84.604934" electricity_abs="0"/>
    </tripinfo>
    <tripinfo id="78" depart="79.00" departLane="B1C1_0" departPos="5.10" departSpeed="0.00" departDelay="1.00" arrival="140.00" arrivalLane="B1C1_0" arrivalPos="279.20" arrivalSpeed="8.00" duration="61.00" routeLength="274.10" waitingTime="31.00" waitingCount="1" stopTime="0.00" timeLoss="40.76" rerouteNo="1" devices="tripinfo_78 routing_78 emissions_78" vType="human_car" speedFactor="0.98" vaporized="">
        <emissions CO_abs="5968.419321" CO2_abs="159301.709374" HC_abs="30.889498" PMx_abs="3.370587" NOx_abs="68.881578" fuel_abs="68.479130" electricity_abs="0"/>
    </tripinfo>
    <tripinfo id="28" depart="28.00" departLane="D1D2_0" departPos="5.10" departSpeed="0.00" departDelay="0.00" arrival="141.00" arrivalLane="C1D1_1" arrivalPos="286.53" arrivalSpeed="10.23" duration="113.00" routeLength="985.46" waitingTime="27.00" waitingCount="2" stopTime="0.00" timeLoss="47.64" rerouteNo="1" devices="tripinfo_28 routing_28 emissions_28" vType="human_car" speedFactor="1.13" vaporized="">
        <emissions CO_abs="7657.883229" CO2_abs="343817.230094" HC_abs="42.949603" PMx_abs="6.696045" NOx_abs="144.067272" fuel_abs="147.793442" electricity_abs="0"/>
    </tripinfo>
    <tripinfo id="43" depart="43.00" departLane="C1D1_0" departPos="5.10" departSpeed="0.00" departDelay="0.00" arrival="144.00" arrivalLane="C1C2_0" arrivalPos="179.20" arrivalSpeed="12.50" duration="101.00" routeLength="1152.60" waitingTime="0.00" waitingCount="0" stopTime="0.00" timeLoss="12.85" rerouteNo="1" devices="tripinfo_43 routing_43 emissions_43" vType="human_car" speedFactor="0.96" vaporized="">
        <emissions CO_abs="3140.841776" CO2_abs="245237.771020" HC_abs="20.020969" PMx_abs="3.971011" NOx_abs="97.299634" fuel_abs="105.417305" electricity_abs="0"/>
    </tripinfo>
    <tripinfo id="17" depart="17.00" departLane="C2B2_0" departPos="5.10" departSpeed="0.00" departDelay="0.00" arrival="145.00" arrivalLane="B1C1_0" arrivalPos="279.20" arrivalSpeed="11.72" duration="128.00" routeLength="775.07" waitingTime="49.00" waitingCount="2" stopTime="0.00" timeLoss="66.57" rerouteNo="1" devices="tripinfo_17 routing_17 emissions_17" vType="human_car" speedFactor="0.94" vaporized="">
        <emissions CO_abs="10132.773334" CO2_abs="318087.712060" HC_abs="53.595993" PMx_abs="6.343971" NOx_abs="134.946299" fuel_abs="136.735657" electricity_abs="0"/>
    </tripinfo>
    <tripinfo id="46" depart="46.00" departLane="right0D0_0" departPos="5.10" departSpeed="0.00" departDelay="0.00" arrival="148.00" arrivalLane="D2C2_0" arrivalPos="289.57" arrivalSpeed="14.21" duration="102.00" routeLength="787.43" waitingTime="30.00" waitingCount="2" stopTime="0.00" timeLoss="45.46" rerouteNo="1" devices="tripinfo_46 routing_46 emissions_46" vType="human_car" speedFactor="1.04" vaporized="">
        <emissions CO_abs="6309.985248" CO2_abs="247685.423979" HC_abs="34.528342" PMx_abs="4.737355" NOx_abs="103.296666" fuel_abs="106.470984" electricity_abs="0"/>
    </tripinfo>
    <tripinfo id="22" depart="22.00" departLane="C1C0_0" departPos="5.10" departSpeed="0.00" departDelay="0.00" arrival="152.00" arrivalLane="D1C1_1" arrivalPos="286.53" arrivalSpeed="12.42" duration="130.00" routeLength="983.55" waitingTime="19.00" waitingCount="3" stopTime="0.00" timeLoss="54.77" rerouteNo="1" devices="tripinfo_22 routing_22 emissions_22" vType="human_car" speedFactor="0.98" vaporized="">
        <emissions CO_abs="6762.741087" CO2_abs="314002.622875" HC_abs="38.198950" PMx_abs="6.003476" NOx_abs="131.869751" fuel_abs="134.977198" electricity_abs="0"/>
    </tripinfo>
    <tripinfo id="32" depart="34.00" departLane="A1B1_0" departPos="5.10" departSpeed="0.00" departDelay="2.00" arrival="152.00" arrivalLane="A2A1_0" arrivalPos="179.20" arrivalSpeed="8.76" duration="118.00" routeLength="930.09" waitingTime="39.00" waitingCount="1" stopTime="0.00" timeLoss="58.18" rerouteNo="1" devices="tripinfo_32 routing_32 emissions_32" vType="human_car" speedFactor="1.15" vaporized="">
        <emissions CO_abs="9694.685656" CO2_abs="371170.336448" HC_abs="52.734644" PMx_abs="7.389307" NOx_abs="156.345451" fuel_abs="159.552437" electricity_abs="0"/>
    </tripinfo>
    <tripinfo id="82" depart="82.00" departLane="B0B1_0" departPos="5.10" departSpeed="0.00" departDelay="0.00" arrival="155.00" arrivalLane="A1A0_0" arrivalPos="183.20" arrivalSpeed="5.59" duration="73.00" routeLength="674.18" waitingTime="8.00" waitingCount="1" stopTime="0.00" timeLoss="23.64" rerouteNo="1" devices="tripinfo_82 routing_82 emissions_82" vType="human_car" speedFactor="1.01" vaporized="">
        <emissions CO_abs="3112.657230" CO2_abs="186880.177039" HC_abs="18.570839" PMx_abs="3.342757" NOx_abs="76.541134" fuel_abs="80.331949" electricity_abs="0"/>
    </tripinfo>
    <tripinfo id="77" depart="77.00" departLane="B0B1_0" departPos="5.10" departSpeed="0.00" departDelay="0.00" arrival="156.00" arrivalLane="B2B1_1" arrivalPos="179.20" arrivalSpeed="12.16" duration="79.00" routeLength="557.98" waitingTime="24.00" waitingCount="1" stopTime="0.00" timeLoss="36.06" rerouteNo="1" devices="tripinfo_77 routing_77 emissions_77" vType="human_car" speedFactor="0.96" vaporized="">
        <emissions CO_abs="5426.076670" CO2_abs="196451.686744" HC_abs="29.307943" PMx_abs="3.751026" NOx_abs="82.132861" fuel_abs="84.447806" electricity_abs="0"/>
    </tripinfo>
    <tripinfo id="13" depart="13.00" departLane="D2D1_0" departPos="5.10" departSpeed="0.00" departDelay="0.00" arrival="157.00" arrivalLane="B2C2_1" arrivalPos="279.20" arrivalSpeed="15.52" duration="144.00" routeLength="1250.62" waitingTime="42.00" waitingCount="1" stopTime="0.00" timeLoss="61.93" rerouteNo="1" devices="tripinfo_13 routing_13 emissions_13" vType="human_car" speedFactor="1.12" vaporized="">
        <emissions CO_abs="9634.367552" CO2_abs="375503.381351" HC_abs="52.600953" PMx_abs="7.325521" NOx_abs="157.003479" fuel_abs="161.415166" electricity_abs="0"/>
    </tripinfo>
    <tripinfo id="63" depart="63.00" departLane="A1A0_0" departPos="5.10" departSpeed="0.00" departDelay="0.00" arrival="157.00" arrivalLane="A2A1_0" arrivalPos="179.20" arrivalSpeed="7.06" duration="94.00" routeLength="749.85" waitingTime="19.00" waitingCount="2" stopTime="0.00" timeLoss="42.64" rerouteNo="1" devices="tripinfo_63 routing_63 emissions_63" vType="human_car" speedFactor="1.08" vaporized="">
        <emissions CO_abs="5411.146947" CO2_abs="241992.323648" HC_abs="30.306156" PMx_abs="4.701574" NOx_abs="101.727355" fuel_abs="104.022930" electricity_abs="0"/>
    </tripinfo>
    <tripinfo id="49" depart="49.00" departLane="D2C2_0" departPos="5.10" departSpeed="0.00" departDelay="0.00" arrival="159.00" arrivalLane="D1D2_1" arrivalPos="183.69" arrivalSpeed="13.40" duration="110.00" routeLength="992.00" waitingTime="14.00" waitingCount="2" stopTime="0.00" timeLoss="36.41" rerouteNo="1" devices="tripinfo_49 routing_49 emissions_49" vType="human_car" speedFactor="1.00" vaporized="">
        <emissions CO_abs="6069.804170" CO2_abs="291206.208835" HC_abs="34.446427" PMx_abs="5.290867" NOx_abs="119.752450" fuel_abs="125.178253" electricity_abs="0"/>
    </tripinfo>
    <tripinfo id="4" depart="4.00" departLane="B0A0_0" departPos="5.10" departSpeed="0.00" departDelay="0.00" arrival="160.00" arrivalLane="C1C0_0" arrivalPos="179.19" arrivalSpeed="12.34" duration="156.00" routeLength="1240.34" waitingTime="38.00" waitingCount="2" stopTime="0.00" timeLoss="66.64" rerouteNo="1" devices="tripinfo_4 routing_4 emissions_4" vType="human_car" speedFactor="1.03" vaporized="">
        <emissions CO_abs="10304.133538" CO2_abs="419019.057039" HC_abs="56.744854" PMx_abs="8.086280" NOx_abs="175.658177" fuel_abs="180.120628" electricity_abs="0"/>
    </tripinfo>
    <tripinfo id="18" depart="18.00" departLane="C1C0_0" departPos="5.10" departSpeed="0.00" departDelay="0.00" arrival="162.00" arrivalLane="D2C2_0" arrivalPos="289.57" arrivalSpeed="12.15" duration="144.00" routeLength="1189.77" waitingTime="23.00" waitingCount="3" stopTime="0.00" timeLoss="50.10" rerouteNo="1" devices="tripinfo_18 routing_18 emissions_18" vType="human_car" speedFactor="0.94" vaporized="">
        <emissions CO_abs="6216.351278" CO2_abs="314574.622844" HC_abs="35.659108" PMx_abs="5.544912" NOx_abs="128.537118" fuel_abs="135.223373" electricity_abs="0"/>
    </tripinfo>
    <tripinfo id="59" depart="59.00" departLane="left2A2_0" departPos="5.10" departSpeed="0.00" departDelay="0.00" arrival="162.00" arrivalLane="B1C1_0" arrivalPos="279.20" arrivalSpeed="12.04" duration="103.00" routeLength="881.69" waitingTime="12.00" waitingCount="2" stopTime="0.00" timeLoss="30.95" rerouteNo="1" devices="tripinfo_59 routing_59 emissions_59" vType="human_car" speedFactor="0.90" vaporized="">
        <emissions CO_abs="4617.951678" CO2_abs="247801.920958" HC_abs="26.841226" PMx_abs="4.462467" NOx_abs="102.233478" fuel_abs="106.519969" electricity_abs="0"/>
    </tripinfo>
    <tripinfo id="110" depart="110.00" departLane="A1A2_0" departPos="5.10" departSpeed="0.00" departDelay="0.00" arrival="162.00" arrivalLane="A2B2_0" arrivalPos="279.20" arrivalSpeed="12.24" duration="52.00" routeLength="462.33" waitingTime="4.00" waitingCount="1" stopTime="0.00" timeLoss="13.55" rerouteNo="0" devices="tripinfo_110 routing_110 emissions_110" vType="human_car" speedFactor="0.89" vaporized="">
        <emissions CO_abs="2024.076318" CO2_abs="120110.328780" HC_abs="12.021258" PMx_abs="2.054353" NOx_abs="48.767373" fuel_abs="51.630537" electricity_abs="0"/>
    </tripinfo>
    <tripinfo id="54" depart="54.00" departLane="A1B1_0" departPos="5.10" departSpeed="0.00" departDelay="0.00" arrival="164.00" arrivalLane="B2A2_0" arrivalPos="279.20" arrivalSpeed="16.08" duration="110.00" routeLength="770.18" waitingTime="42.00" waitingCount="1" stopTime="0.00" timeLoss="60.61" rerouteNo="1" devices="tripinfo_54 routing_54 emissions_54" vType="human_car" speedFactor="1.17" vaporized="">
        <emissions CO_abs="10656.974664" CO2_abs="359772.027112" HC_abs="56.962411" PMx_abs="7.534432" NOx_abs="154.613192" fuel_abs="154.653181" electricity_abs="0"/>
    </tripinfo>
    <tripinfo id="71" depart="73.00" departLane="D1C1_0" departPos="5.10" departSpeed="0.00" departDelay="2.00" arrival="165.00" arrivalLane="C1B1_1" arrivalPos="279.20" arrivalSpeed="13.72" duration="92.00" routeLength="581.44" waitingTime="35.00" waitingCount="1" stopTime="0.00" timeLoss="51.47" rerouteNo="0" devices="tripinfo_71 routing_71 emissions_71" vType="human_car" speedFactor="1.04" vaporized="">
        <emissions CO_abs="7684.040640" CO2_abs="246626.129162" HC_abs="40.764567" PMx_abs="4.875166" NOx_abs="103.835544" fuel_abs="106.016596" electricity_abs="0"/>
    </tripinfo>
    <tripinfo id="99" depart="99.00" departLane="A0A1_0" departPos="5.10" departSpeed="0.00" departDelay="0.00" arrival="165.00" arrivalLane="B1B2_0" arrivalPos="179.20" arrivalSpeed="14.60" duration="66.00" routeLength="666.34" waitingTime="8.00" waitingCount="1" stopTime="0.00" timeLoss="20.81" rerouteNo="1" devices="tripinfo_99 routing_99 emissions_99" vType="human_car" speedFactor="1.09" vaporized="">
        <emissions CO_abs="3673.584991" CO2_abs="213183.381428" HC_abs="21.685562" PMx_abs="3.979527" NOx_abs="88.049091" fuel_abs="91.638463" electricity_abs="0"/>
    </tripinfo>
    <tripinfo id="70" depart="70.00" departLane="D1C1_0" departPos="5.10" departSpeed="0.00" departDelay="0.00" arrival="167.00" arrivalLane="C1B1_0" arrivalPos="279.20" arrivalSpeed="11.81" duration="97.00" routeLength="581.44" waitingTime="37.00" waitingCount="1" stopTime="0.00" timeLoss="50.41" rerouteNo="0" devices="tripinfo_70 routing_70 emissions_70" vType="human_car" speedFactor="0.91" vaporized="">
        <emissions CO_abs="7736.810308" CO2_abs="229648.162314" HC_abs="40.602910" PMx_abs="4.598675" NOx_abs="97.586849" fuel_abs="98.718672" electricity_abs="0"/>
    </tripinfo>
    <tripinfo id="36" depart="37.00" departLane="C0C1_0" departPos="5.10" departSpeed="0.00" departDelay="1.00" arrival="168.00" arrivalLane="D0right0_1" arrivalPos="92.83" arrivalSpeed="12.89" duration="131.00" routeLength="769.44" waitingTime="53.00" waitingCount="2" stopTime="0.00" timeLoss="72.75" rerouteNo="1" devices="tripinfo_36 routing_36 emissions_36" vType="human_car" speedFactor="0.99" vaporized="">
        <emissions CO_abs="10929.107050" CO2_abs="349575.858534" HC_abs="57.963977" PMx_abs="7.007537" NOx_abs="148.366303" fuel_abs="150.271180" electricity_abs="0"/>
    </tripinfo>
    <tripinfo id="100" depart="101.00" departLane="D1C1_0" departPos="5.10" departSpeed="0.00" departDelay="1.00" arrival="168.00" arrivalLane="C1B1_0" arrivalPos="279.20" arrivalSpeed="13.67" duration="67.00" routeLength="581.44" waitingTime="9.00" waitingCount="1" stopTime="0.00" timeLoss="27.24" rerouteNo="0" devices="tripinfo_100 routing_100 emissions_100" vType="human_car" speedFactor="1.06" vaporized="">
        <emissions CO_abs="3433.512754" CO2_abs="174330.699663" HC_abs="19.730723" PMx_abs="3.257852" NOx_abs="72.251525" fuel_abs="74.937698" electricity_abs="0"/>
    </tripinfo>
    <tripinfo id="39" depart="39.00" departLane="C0B0_0" departPos="5.10" departSpeed="0.00" departDelay="0.00" arrival="171.00" arrivalLane="A1B1_0" arrivalPos="279.20" arrivalSpeed="16.17" duration="132.00" routeLength="1052.11" waitingTime="44.00" waitingCount="2" stopTime="0.00" timeLoss="66.25" rerouteNo="1" devices="tripinfo_39 routing_39 emissions_39" vType="human_car" speedFactor="1.18" vaporized="">
        <emissions CO_abs="9402.148936" CO2_abs="389613.284190" HC_abs="51.895177" PMx_abs="7.568566" NOx_abs="162.063277" fuel_abs="167.480104" electricity_abs="0"/>
    </tripinfo>
    <tripinfo id="101" depart="104.00" departLane="D1C1_0" departPos="5.10" departSpeed="0.00" departDelay="3.00" arrival="171.00" arrivalLane="C1B1_0" arrivalPos="279.20" arrivalSpeed="13.68" duration="67.00" routeLength="581.44" waitingTime="8.00" waitingCount="1" stopTime="0.00" timeLoss="24.87" rerouteNo="0" devices="tripinfo_101 routing_101 emissions_101" vType="human_car" speedFactor="1.01" vaporized="">
        <emissions CO_abs="3053.044966" CO2_abs="163759.197284" HC_abs="17.707195" PMx_abs="2.929529" NOx_abs="66.976488" fuel_abs="70.393491" electricity_abs="0"/>
    </tripinfo>